8
Lattice="5.625284439074975 0.0 0.0 0.0 5.438966748348313 0.0 0.0 0.0 5.4734277976902455" Properties=species:S:1:pos:R:3:masses:R:1:momenta:R:3:mass:R:1:c_energy:R:1:forces:R:3 time=0.109 energy=-32.53947483921981 stress="3.833726437631135e-10 -0.007986317856825914 0.0023474560541307046 -0.007986317856825914 -3.2712839241703716e-10 -0.004564244664727604 0.0023474560541307046 -0.004564244664727604 2.6416968809797097e-10" free_energy=-32.53947483921981 pbc="T T T"
Si       4.93517271       0.45378474       3.14260061       1.00800000      -0.00000004       0.00000006      -0.00000003      28.08550072      -4.52891445       0.03567543       0.08895478      -0.06187611
Si       3.00814187       1.64540817       2.35333145       1.00800000      -0.00000004       0.00000005      -0.00000006      28.08550072      -3.63466263       0.13837067      -0.06017296      -0.07592560
Si       4.32099932       3.88597991       1.78086479       1.00800000      -0.00000004       0.00000010      -0.00000007      28.08550072      -3.75871253      -0.02693041      -0.03983378      -0.27198089
Si       2.36714077       3.63946876       3.58963905       1.00800000       0.00000003      -0.00000001       0.00000002      28.08550072      -4.77424526       0.03506949      -0.13678323       0.23650367
Si       1.21202750       4.74846195      -0.02233567       1.00800000       0.00000008      -0.00000037       0.00000022      28.08550072      -3.14909315      -0.13709477       0.09645610      -0.07056309
Si       0.09629890       2.72569074       3.39966537       1.00800000      -0.00000003       0.00000006      -0.00000011      28.08550072      -3.74740124       0.15995590      -0.21641698      -0.14604616
Si       4.53486750       4.21294975       4.90162092       1.00800000       0.00000003       0.00000012      -0.00000007      28.08550072      -4.42679739      -0.00319652       0.07055609       0.24570120
Si       1.47496231       5.34982971       2.21168650       1.00800000       0.00000000      -0.00000000       0.00000011      28.08550072      -4.43586779      -0.20184979       0.19723998       0.14418699
