8
Lattice="5.442886620136119 0.0 0.0 0.0 5.442886620136119 0.0 0.0 0.0 5.442886620136119" Properties=species:S:1:pos:R:3:masses:R:1:momenta:R:3:mass:R:1:c_energy:R:1:forces:R:3 time=0.109 energy=-32.67517139791636 stress="0.007483248762384919 -0.01112413485363832 0.010643150168090145 -0.01112413485363832 -0.00529071015335956 0.0007937324591390247 0.010643150168090145 0.0007937324591390247 -0.002192542831482071" free_energy=-32.67517139791636 pbc="T T T"
Si       4.74661580       0.34411034       3.08431363       1.00800000      -0.00000004       0.00000006      -0.00000003      28.08550072      -4.52891445      -0.00000000      -0.00000002       0.00000002
Si       2.84826723       1.72637111       2.52220385       1.00800000      -0.00000004       0.00000005      -0.00000006      28.08550072      -3.63466263      -0.00000001      -0.00000001       0.00000007
Si       4.27010604       3.63194769       1.86340598       1.00800000      -0.00000004       0.00000010      -0.00000007      28.08550072      -3.75871253      -0.00000005       0.00000001      -0.00000002
Si       2.33884311       3.96890970       3.73323127       1.00800000       0.00000003      -0.00000001       0.00000002      28.08550072      -4.77424526       0.00000001       0.00000000       0.00000000
Si       0.88038897       5.24128868      -0.32995082       1.00800000       0.00000008      -0.00000037       0.00000022      28.08550072      -3.14909315       0.00000004      -0.00000002       0.00000004
Si       0.33626112       2.54558715       3.41712833       1.00800000      -0.00000003       0.00000006      -0.00000011      28.08550072      -3.74740124      -0.00000002       0.00000003      -0.00000008
Si       4.42029747       3.79831844       4.98641101       1.00800000       0.00000003       0.00000012      -0.00000007      28.08550072      -4.42679739       0.00000003       0.00000002      -0.00000006
Si       1.39712292       5.42425565       1.96115944       1.00800000       0.00000000      -0.00000000       0.00000011      28.08550072      -4.43586779      -0.00000001      -0.00000000       0.00000004
