64
Lattice="10.627868696752156 0.0 0.0 0.0 10.627868696752156 0.0 0.0 0.0 10.627868696752156" Properties=species:S:1:pos:R:3:masses:R:1:momenta:R:3:mass:R:1:c_energy:R:1:forces:R:3 time=0.214 pbc="T T T"
Si       8.98308849       1.44456506       7.25680685       1.00800000      -0.00000002       0.00000006       0.00000007      28.08550072      -4.09835386       0.00000000       0.00000000       0.00000000
Si      10.61276054       4.96242094       3.37603188       1.00800000      -0.00000002       0.00000002      -0.00000000      28.08550072      -4.07358503      -0.00000000      -0.00000000       0.00000000
Si       8.37847710       5.16624689       1.18372965       1.00800000      -0.00000003      -0.00000001       0.00000004      28.08550072      -3.96435666      -0.00000000      -0.00000000       0.00000000
Si       5.45380116       0.90724051       7.98800945       1.00800000       0.00000000       0.00000000      -0.00000002      28.08550072      -4.24195385       0.00000000       0.00000000       0.00000000
Si       3.12697959       0.23588261       7.18032598       1.00800000      -0.00000005       0.00000003      -0.00000001      28.08550072      -4.27223110      -0.00000000       0.00000000      -0.00000000
Si      10.33681583       4.44891310       7.67994213       1.00800000       0.00000018      -0.00000003      -0.00000004      28.08550072      -4.42281246       0.00000000      -0.00000000      -0.00000000
Si       2.58790708       0.79545224       9.49766922       1.00800000      -0.00000008       0.00000007      -0.00000005      28.08550072      -4.02871323      -0.00000000       0.00000000      -0.00000000
Si       8.92566681       8.20373821       3.21923566       1.00800000      -0.00000001      -0.00000002      -0.00000004      28.08550072      -3.73809958      -0.00000000      -0.00000000      -0.00000000
Si      10.59962177       7.50557232       5.12347889       1.00800000       0.00000001      -0.00000001       0.00000001      28.08550072      -4.61029816      -0.00000000      -0.00000000       0.00000000
Si       4.71185064       7.91468954       5.95023584       1.00800000      -0.00000000       0.00000006      -0.00000001      28.08550072      -3.85353041      -0.00000000       0.00000000       0.00000000
Si       3.85815740       2.05950427       0.46169540       1.00800000      -0.00000002      -0.00000002       0.00000000      28.08550072      -4.35645199      -0.00000000      -0.00000000       0.00000000
Si       0.55738455       7.79178333       9.03925991       1.00800000       0.00000000      -0.00000010       0.00000001      28.08550072      -4.23231506      -0.00000000      -0.00000000       0.00000000
Si       4.40976906       8.99492359       8.05004883       1.00800000      -0.00000000       0.00000006      -0.00000001      28.08550072      -3.89023209      -0.00000000       0.00000000       0.00000000
Si       0.79964805       1.63683379       2.87197089       1.00800000      -0.00000001      -0.00000002       0.00000001      28.08550072      -4.32455969      -0.00000000      -0.00000000       0.00000000
Si       8.45509529      10.72061729       2.89860082       1.00800000      -0.00000002       0.00000000      -0.00000003      28.08550072      -4.56394815      -0.00000000       0.00000000       0.00000000
Si       3.09672761       1.97365952       2.67522073       1.00800000      -0.00000001      -0.00000003       0.00000001      28.08550072      -4.21488857      -0.00000000      -0.00000000       0.00000000
Si       5.61542940       3.25317335       8.27023125       1.00800000       0.00000004      -0.00000002       0.00000004      28.08550072      -4.14996099       0.00000000       0.00000000       0.00000000
Si       1.23514974       3.12188244       8.92878437       1.00800000       0.00000012      -0.00000002       0.00000004      28.08550072      -4.06079388       0.00000000      -0.00000000       0.00000000
Si       4.60325766      10.12734985       1.24443412       1.00800000      -0.00000002       0.00000001      -0.00000004      28.08550072      -4.34227085      -0.00000000      -0.00000000      -0.00000000
Si       6.07055140      10.17592621       9.94070053       1.00800000       0.00000003       0.00000004      -0.00000000      28.08550072      -4.30798483      -0.00000000       0.00000000       0.00000000
Si       4.69827509       0.39484897       3.50798345       1.00800000       0.00000001      -0.00000002      -0.00000002      28.08550072      -4.72751141       0.00000000      -0.00000000      -0.00000000
Si       3.51271057       4.24470949       3.17190480       1.00800000       0.00000003      -0.00000004       0.00000002      28.08550072      -4.13380814       0.00000000      -0.00000000       0.00000000
Si       6.06781244       2.54799581       1.05771017       1.00800000      -0.00000003       0.00000005       0.00000001      28.08550072      -4.29058170      -0.00000000       0.00000000      -0.00000000
Si       1.21357214       5.76094341       6.31618071       1.00800000       0.00000010       0.00000002      -0.00000005      28.08550072      -4.22338724       0.00000000      -0.00000000      -0.00000000
Si       5.90034008       6.22864532       9.34897614       1.00800000      -0.00000003       0.00000003       0.00000000      28.08550072      -3.65425420      -0.00000000       0.00000000      -0.00000000
Si       9.14917850       7.63418579       0.85732639       1.00800000      -0.00000004      -0.00000006      -0.00000003      28.08550072      -4.52482033      -0.00000000      -0.00000000      -0.00000000
Si       2.96043944       7.60938931       9.23065090       1.00800000       0.00000001      -0.00000001      -0.00000004      28.08550072      -4.74685907      -0.00000000      -0.00000000      -0.00000000
Si       7.12387753       6.88398647       6.15480185       1.00800000      -0.00000004       0.00000002       0.00000000      28.08550072      -4.23517132      -0.00000000       0.00000000      -0.00000000
Si       6.73796511      10.17330551       4.43281364       1.00800000       0.00000001      -0.00000002      -0.00000001      28.08550072      -4.12234354      -0.00000000      -0.00000000       0.00000000
Si       7.97312927       8.54649258       7.60542822       1.00800000      -0.00000001       0.00000003      -0.00000002      28.08550072      -4.38369846      -0.00000000       0.00000000      -0.00000000
Si       6.84465361       4.28408194      10.27759361       1.00800000      -0.00000003       0.00000005       0.00000002      28.08550072      -4.72234917      -0.00000000       0.00000000       0.00000000
Si       5.49968481       4.45414257       4.40514708       1.00800000       0.00000001      -0.00000006       0.00000005      28.08550072      -4.29932356       0.00000000      -0.00000000       0.00000000
Si       7.53011322       0.72348845       0.79425055       1.00800000      -0.00000002       0.00000008      -0.00000001      28.08550072      -4.31376600      -0.00000000       0.00000000       0.00000000
Si       1.73796487       4.19284868       4.68420458       1.00800000      -0.00000001      -0.00000002      -0.00000004      28.08550072      -4.40073013      -0.00000000      -0.00000000      -0.00000000
Si       9.30215645       3.19964194       5.66825342       1.00800000       0.00000003       0.00000002       0.00000004      28.08550072      -4.47807503       0.00000000       0.00000000       0.00000000
Si       4.14337444       6.55302525       0.37262744       1.00800000      -0.00000003       0.00000002       0.00000000      28.08550072      -4.66713381      -0.00000000       0.00000000       0.00000000
Si       8.90940571       5.56518030       4.99078703       1.00800000       0.00000000       0.00000001       0.00000003      28.08550072      -4.32671404      -0.00000000       0.00000000       0.00000000
Si       0.14604239       9.47255325       0.13212438       1.00800000      -0.00000003      -0.00000008      -0.00000000      28.08550072      -4.39900637      -0.00000000      -0.00000000      -0.00000000
Si       9.94937897       3.25359750       1.77784669       1.00800000      -0.00000004      -0.00000002       0.00000005      28.08550072      -5.08417845       0.00000000      -0.00000000       0.00000000
Si       6.58248520       7.84845543       3.84873223       1.00800000      -0.00000001      -0.00000001      -0.00000003      28.08550072      -4.77988672      -0.00000000      -0.00000000      -0.00000000
Si       5.54070044       5.15622807       6.76422405       1.00800000       0.00000007      -0.00000005       0.00000002      28.08550072      -4.31495285       0.00000000      -0.00000000       0.00000000
Si       3.31920743       6.09476280       7.36584568       1.00800000       0.00000011       0.00000004      -0.00000008      28.08550072      -4.43557262       0.00000000       0.00000000      -0.00000000
Si       7.22199011      10.61823845       6.73205042       1.00800000       0.00000002       0.00000004      -0.00000002      28.08550072      -4.55815363       0.00000000       0.00000000       0.00000000
Si      10.29689121       8.76468468       7.08185387       1.00800000      -0.00000000      -0.00000004       0.00000003      28.08550072      -4.47908497      -0.00000000      -0.00000000       0.00000000
Si       1.58523142       8.74667072       3.84542394       1.00800000      -0.00000002       0.00000001      -0.00000002      28.08550072      -4.30356598      -0.00000000      -0.00000000      -0.00000000
Si       3.17237282       4.43542385       0.70158339       1.00800000       0.00000003       0.00000000       0.00000005      28.08550072      -4.44879150       0.00000000       0.00000000       0.00000000
Si       3.42073965       4.12776709       8.84295654       1.00800000       0.00000007       0.00000006       0.00000004      28.08550072      -3.87443638       0.00000000       0.00000000       0.00000000
Si       5.69960451       8.00836468       1.55265749       1.00800000      -0.00000001       0.00000002      -0.00000003      28.08550072      -3.56717372      -0.00000000       0.00000000      -0.00000000
Si       0.15218085      10.07422352       2.46638441       1.00800000      -0.00000003      -0.00000002      -0.00000002      28.08550072      -4.43274832      -0.00000000      -0.00000000      -0.00000000
Si       0.54546702       6.45585442       1.66467309       1.00800000      -0.00000001      -0.00000003      -0.00000005      28.08550072      -4.10908318       0.00000000      -0.00000000      -0.00000000
Si       0.82741940       4.43440676       0.29557621       1.00800000       0.00000003      -0.00000008       0.00000004      28.08550072      -4.50027275       0.00000000      -0.00000000       0.00000000
Si       7.26533747       5.57766867       3.28634858       1.00800000      -0.00000002      -0.00000003       0.00000005      28.08550072      -4.12390137       0.00000000      -0.00000000       0.00000000
Si      10.01350880       5.84182167       9.59757996       1.00800000       0.00000001      -0.00000013       0.00000001      28.08550072      -3.95065451       0.00000000      -0.00000000      -0.00000000
Si       8.50604153       2.38291311       3.57662201       1.00800000      -0.00000000      -0.00000002       0.00000006      28.08550072      -4.01352072       0.00000000       0.00000000       0.00000000
Si       9.19208050       2.03976345      10.48001575       1.00800000      -0.00000001       0.00000006      -0.00000001      28.08550072      -4.22546625      -0.00000000      -0.00000000       0.00000000
Si       0.15599641       0.78045899       9.29643917       1.00800000      -0.00000010      -0.00000008       0.00000006      28.08550072      -4.55047274      -0.00000000      -0.00000000       0.00000000
Si       7.28096676       8.09966183       9.92594051       1.00800000      -0.00000001       0.00000002      -0.00000003      28.08550072      -4.56627369      -0.00000000       0.00000000      -0.00000000
Si       3.41369271       9.71358013       5.02975655       1.00800000      -0.00000003       0.00000002      -0.00000002      28.08550072      -4.23842764      -0.00000000       0.00000000      -0.00000000
Si       2.57074142       9.39750481       0.23659094       1.00800000      -0.00000002       0.00000004      -0.00000009      28.08550072      -4.45283985      -0.00000000       0.00000000      -0.00000000
Si       8.36050797       3.28755450       8.68472481       1.00800000       0.00000005       0.00000015       0.00000004      28.08550072      -4.08337259       0.00000000       0.00000000       0.00000000
Si       0.65838814       0.32218334       6.90506554       1.00800000      -0.00000006      -0.00000001       0.00000004      28.08550072      -4.24229956      -0.00000000      -0.00000000       0.00000000
Si       6.17009401       2.43433428       3.42939472       1.00800000       0.00000000      -0.00000003       0.00000000      28.08550072      -4.14543629      -0.00000000      -0.00000000      -0.00000000
Si       0.70678538       2.10121107       5.17650986       1.00800000      -0.00000000      -0.00000002       0.00000001      28.08550072      -4.05982685       0.00000000      -0.00000000       0.00000000
Si       2.47948742       7.67682695       1.91828966       1.00800000      -0.00000005       0.00000005      -0.00000006      28.08550072      -3.91479015      -0.00000000       0.00000000      -0.00000000
