8
Lattice="5.567464499792305 0.0 0.0 0.0 5.567464499792305 0.0 0.0 0.0 5.567464499792305" Properties=species:S:1:pos:R:3:masses:R:1:momenta:R:3:mass:R:1:c_energy:R:1:forces:R:3 time=0.109 pbc="T T T"
Si       4.88444614       0.46450558       3.19659233       1.00800000      -0.00000004       0.00000006      -0.00000003      28.08550072      -4.52891445      -0.00000000       0.00000000       0.00000000
Si       2.97722244       1.68428159       2.39376307       1.00800000      -0.00000004       0.00000005      -0.00000006      28.08550072      -3.63466263      -0.00000000       0.00000000       0.00000000
Si       4.27658558       3.97778773       1.81146109       1.00800000      -0.00000004       0.00000010      -0.00000007      28.08550072      -3.75871253      -0.00000000       0.00000000      -0.00000000
Si       2.34280992       3.72545266       3.65131116       1.00800000       0.00000003      -0.00000001       0.00000002      28.08550072      -4.77424526       0.00000000      -0.00000000       0.00000000
Si       1.19956958       4.86064625      -0.02271941       1.00800000       0.00000008      -0.00000037       0.00000022      28.08550072      -3.14909315       0.00000000      -0.00000001       0.00000000
Si       0.09530908       2.79008627       3.45807362       1.00800000      -0.00000003       0.00000006      -0.00000011      28.08550072      -3.74740124      -0.00000000       0.00000000      -0.00000000
Si       4.48825550       4.31248236       4.98583364       1.00800000       0.00000003       0.00000012      -0.00000007      28.08550072      -4.42679739       0.00000000       0.00000000      -0.00000000
Si       1.45980179       5.47622156       2.24968457       1.00800000       0.00000000      -0.00000000       0.00000011      28.08550072      -4.43586779       0.00000000      -0.00000000       0.00000000
