32
Lattice="3.0061351435328256 0.0 0.0 0.0 3.0061351435328256 0.0 0.0 0.0 3.0061351435328256" Properties=species:S:1:pos:R:3:masses:R:1:forces:R:3 time=116.33800000000001 energy=-181.1892635478015 stress="0.13225721557320347 0.04044791668800602 -0.7097182170704043 0.04044791668800602 -3.4396854617734687 0.6565858241610287 -0.7097182170704043 0.6565858241610287 -0.7783077536527742" free_energy=-181.1892635478015 pbc="T T T"
H        0.96884899       0.38314255       2.69930260       1.00800000      -0.00000000       0.00000000       0.00000000
H        0.27230424       0.65864317       0.44102174       1.00800000      -0.00000000      -0.00000000       0.00000000
H        0.03106847       2.86013108       2.63740283       1.00800000      -0.00000000       0.00000000      -0.00000000
H        0.16742922       0.55931221       1.86288446       1.00800000      -0.00000000       0.00000000       0.00000000
H        1.92495708       2.69281230       1.35578006       1.00800000       0.00000000      -0.00000000      -0.00000000
H        2.40698119       1.30648292       2.15276464       1.00800000      -0.00000000       0.00000000       0.00000000
H        1.38820736       1.82588052       1.73802440       1.00800000      -0.00000000       0.00000000       0.00000000
H        2.41392429       1.75897289       1.19327299       1.00800000       0.00000000      -0.00000000      -0.00000000
H        1.24185169       0.20984428       0.72992763       1.00800000      -0.00000000       0.00000000       0.00000000
H        2.29022847       0.68380198       1.25666008       1.00800000      -0.00000000      -0.00000000      -0.00000000
H        1.25595864       0.78332025       1.72527960       1.00800000       0.00000000       0.00000000       0.00000000
H        1.45488660       1.25401969       0.78935139       1.00800000       0.00000000       0.00000000       0.00000000
He       2.78425576       0.67677060       2.67694495       4.00260200       0.00000000      -0.00000000       0.00000000
He       0.54622344       2.82345824       0.33494551       4.00260200       0.00000000      -0.00000000      -0.00000000
He       1.69275575       0.67871477       0.14493916       4.00260200      -0.00000000      -0.00000000       0.00000000
H        0.03524896       2.81289203       1.08926212       1.00800000       0.00000000      -0.00000000       0.00000000
H        2.31302734       0.10213869       0.35228354       1.00800000       0.00000000      -0.00000000      -0.00000000
He       2.61222619       2.87848059       1.86665084       4.00260200       0.00000000      -0.00000000      -0.00000000
He       0.74529972       1.51593641       0.34052632       4.00260200       0.00000000       0.00000000      -0.00000000
H        0.12053070       2.10993983       1.91060413       1.00800000       0.00000000      -0.00000000      -0.00000000
H        2.12397835       2.30548473       2.37250143       1.00800000      -0.00000000       0.00000000      -0.00000000
H        1.46455293       1.36469403       2.69512135       1.00800000      -0.00000000       0.00000000       0.00000000
He       1.59346185       2.80873401       2.90540966       4.00260200      -0.00000000       0.00000000       0.00000000
H        1.86630959       2.14393288       0.37957862       1.00800000       0.00000000       0.00000000      -0.00000000
H        0.92921592       2.79212708       1.79283002       1.00800000       0.00000000       0.00000000       0.00000000
H        0.92578201       2.26404642       2.75675595       1.00800000       0.00000000      -0.00000000      -0.00000000
H        0.92498702       2.22224590       0.85970605       1.00800000       0.00000000       0.00000000      -0.00000000
H        0.00784894       2.05056122       0.31581102       1.00800000       0.00000000      -0.00000000       0.00000000
H        0.43313651       1.36022886       1.20999614       1.00800000       0.00000000      -0.00000000      -0.00000000
H        2.01889543       0.35172865       2.34640570       1.00800000       0.00000000       0.00000000       0.00000000
H        0.39338784       1.31661297       2.57446347       1.00800000      -0.00000000       0.00000000       0.00000000
H        2.38861493       1.19969852       0.24224709       1.00800000       0.00000000      -0.00000000       0.00000000
