32
Lattice="3.2004886417015337 0.0 0.0 0.0 3.2004886417015337 0.0 0.0 0.0 3.2004886417015337" Properties=species:S:1:pos:R:3:masses:R:1:forces:R:3 time=206.21 energy=-158.71769869576514 stress="-0.460398326516909 -0.6086595836432159 1.4088173442033376e-15 -0.6086595836432159 -1.713346148206469 -2.953097894580073e-15 1.4088173442033376e-15 -2.953097894580073e-15 -0.9924901849637839" free_energy=-158.71769869576514 pbc="T T T"
H        2.89108652       2.59199327       1.24679114       1.00800000       0.00000000       0.00000000       0.00000000
H        0.74892483       2.28484140       3.18338966       1.00800000      -0.00000000      -0.00000000       0.00000000
H        0.90860242       3.32090333       2.84310033       1.00800000       0.00000000      -0.00000000       0.00000000
H        2.13552452       0.96116843       3.21199449       1.00800000       0.00000000       0.00000000       0.00000000
H        2.13552452       0.96116843       1.14232537       1.00800000       0.00000000       0.00000000      -0.00000000
H        3.12476390       1.56965608       1.47825898       1.00800000      -0.00000000       0.00000000      -0.00000000
H        3.41321901       2.83278411       2.17715993       1.00800000      -0.00000000       0.00000000       0.00000000
H        3.57483127       3.15317981       0.57691561       1.00800000       0.00000000       0.00000000       0.00000000
H        1.79146644       2.72101346       3.21035419       1.00800000       0.00000000      -0.00000001       0.00000000
H        0.89396527       1.15181036       1.22079694       1.00800000      -0.00000001      -0.00000000      -0.00000000
H        0.43251636       0.85855627       2.17715993       1.00800000      -0.00000000      -0.00000000       0.00000000
H        2.48285240       3.32494203       0.57691561       1.00800000      -0.00000000      -0.00000000       0.00000000
H        3.03227930       0.42110513       2.89667078       1.00800000       0.00000000       0.00000000      -0.00000000
H        2.31830589       3.22377238       2.17715993       1.00800000       0.00000000       0.00000000       0.00000000
H        1.39000777       0.39695995       0.57691561       1.00800000       0.00000000      -0.00000000       0.00000000
H        1.68331800       1.76640097       2.71191396       1.00800000      -0.00000001      -0.00000000      -0.00000000
H        0.90860242       3.32090333       1.51121952       1.00800000       0.00000000      -0.00000000      -0.00000000
H        1.49777189       1.76462379       0.57691561       1.00800000      -0.00000000      -0.00000001      -0.00000000
H        1.48813896       0.78684857       2.17715993       1.00800000       0.00000000      -0.00000000       0.00000000
H        3.03227930       0.42110513       1.45764908       1.00800000       0.00000000       0.00000000       0.00000000
H        1.79146644       2.72101346       1.14396566       1.00800000       0.00000000      -0.00000001      -0.00000000
H        0.89396527       1.15181036       3.13352292       1.00800000      -0.00000001      -0.00000000       0.00000000
H        2.52610523       2.17500502       2.17715993       1.00800000      -0.00000001       0.00000000       0.00000000
H        2.89108652       2.59199327       3.10752872       1.00800000       0.00000000       0.00000000      -0.00000000
H        0.74892483       2.28484140       1.17093019       1.00800000      -0.00000000      -0.00000000      -0.00000000
H        3.12476390       1.56965608       2.87606087       1.00800000      -0.00000000       0.00000000       0.00000000
H        2.53933860       1.83905760       0.57691561       1.00800000      -0.00000000       0.00000001      -0.00000000
H        3.21412104       0.99025483       0.57691561       1.00800000      -0.00000001       0.00000000       0.00000000
H        1.41228519       2.66516147       2.17715993       1.00800000       0.00000000      -0.00000000       0.00000000
H        0.71934944       1.86037366       2.17715993       1.00800000      -0.00000000       0.00000001      -0.00000000
H        1.68331800       1.76640097       1.64240590       1.00800000      -0.00000001      -0.00000000       0.00000000
H        2.49548978       1.08663550       2.17715993       1.00800000      -0.00000000      -0.00000000       0.00000000
