256
Lattice="6.355966540994844 0.0 0.0 0.0 6.355966540994844 0.0 0.0 0.0 6.355966540994844" Properties=species:S:1:pos:R:3:masses:R:1:forces:R:3 time=201.252 energy=-1551.1352118412856 stress="-0.22431917595304304 0.12076812083775693 -0.027617630389366418 0.12076812083775693 0.18594063043750442 0.14523135554546315 -0.027617630389366418 0.14523135554546315 -0.09931250734782966" free_energy=-1551.1352118412856 pbc="T T T"
H        3.59441119       6.35070918       2.45132567       1.00800000       0.00000016      -0.00000010      -0.00000021
H        2.78666764       5.14019293       5.31704550       1.00800000       0.00000000       0.00000025      -0.00000017
H        2.78185969       4.67388099       4.33687616       1.00800000       0.00000006      -0.00000029       0.00000013
H        1.36492063       1.84395923       4.00320248       1.00800000      -0.00000011       0.00000013       0.00000029
H        2.96161737       2.54946826       2.66166970       1.00800000      -0.00000027       0.00000000       0.00000027
H        1.16551852       5.22600180       5.49665599       1.00800000      -0.00000015       0.00000017       0.00000018
H        4.91294317       1.45881188       4.79717091       1.00800000      -0.00000012       0.00000004      -0.00000024
H        1.19923653       6.18670082       5.99542135       1.00800000      -0.00000005       0.00000024       0.00000011
H        1.49406572       6.14870355       0.66347976       1.00800000       0.00000007      -0.00000015       0.00000016
H        1.23662178       3.50005647       6.31197838       1.00800000      -0.00000005       0.00000019       0.00000028
H        0.84693733       4.26946254       2.11655773       1.00800000       0.00000033       0.00000002      -0.00000040
H        3.84085337       2.31847833       3.22933688       1.00800000      -0.00000025      -0.00000016       0.00000018
H        5.54626712       3.93586437       1.61790096       1.00800000      -0.00000011       0.00000006       0.00000006
H        1.16876337       6.00653419       2.75212719       1.00800000      -0.00000008      -0.00000002       0.00000000
H        4.92014123       5.16194059       0.30685288       1.00800000       0.00000029       0.00000004       0.00000082
H        4.98986988       0.75408244       1.10622547       1.00800000       0.00000032      -0.00000015       0.00000009
H        0.85731463       0.60412955       2.46354163       1.00800000       0.00000013      -0.00000009       0.00000004
H        3.34873816       2.95094948       0.42458133       1.00800000      -0.00000000      -0.00000026       0.00000033
H        4.53619109       4.16609269       4.27522155       1.00800000       0.00000000       0.00000002      -0.00000004
H        4.97898790       3.14309663       1.26931716       1.00800000       0.00000007      -0.00000002      -0.00000018
H        4.65382994       3.36879820       5.05630042       1.00800000      -0.00000009      -0.00000001      -0.00000022
H        0.90411775       4.96473229       3.01674294       1.00800000      -0.00000004      -0.00000021      -0.00000018
H        0.86850157       0.08079949       1.51655894       1.00800000       0.00000001       0.00000023      -0.00000009
H        6.00185366       6.33423666       4.94891086       1.00800000      -0.00000005       0.00000011      -0.00000018
H        6.08193376       2.67659705       4.21248870       1.00800000      -0.00000004       0.00000008      -0.00000010
H        2.29017586       2.40983294       1.84434741       1.00800000       0.00000001      -0.00000023       0.00000010
H        2.12209308       2.24647290       5.32049793       1.00800000      -0.00000007       0.00000000       0.00000012
H        3.97516407       3.51397469       1.13563792       1.00800000      -0.00000013      -0.00000047       0.00000047
H        4.22793106       5.44275058       1.12835135       1.00800000      -0.00000018       0.00000027       0.00000027
H        5.18925064       2.65659178       0.31697119       1.00800000      -0.00000005      -0.00000008      -0.00000020
H        0.28326032       1.61041556       5.69071433       1.00800000      -0.00000011       0.00000005      -0.00000022
H        4.42662988       0.74160076       4.12414366       1.00800000       0.00000012      -0.00000016      -0.00000030
H        3.45728053       0.85108244       1.36283357       1.00800000       0.00000013      -0.00000011       0.00000018
H        1.87999685       5.46609752       3.35006433       1.00800000      -0.00000008      -0.00000025      -0.00000002
H        1.37949467       0.82618969       0.82049351       1.00800000       0.00000017      -0.00000002      -0.00000023
H        0.58802956       2.18440915       4.72469371       1.00800000      -0.00000015       0.00000020       0.00000007
H        2.36476663       1.28381663       5.75554688       1.00800000       0.00000003      -0.00000002      -0.00000001
H        0.09591661       4.82957622       3.87190436       1.00800000      -0.00000002      -0.00000007       0.00000002
H        1.21802769       3.91633693       0.97912365       1.00800000      -0.00000003       0.00000010       0.00000034
H        2.03906383       5.91509830       5.36475378       1.00800000      -0.00000014       0.00000009       0.00000002
H        1.94117957       5.45252895       4.41161417       1.00800000       0.00000044       0.00000003      -0.00000006
H        4.09680221       6.13511003       4.49814751       1.00800000       0.00000012      -0.00000004      -0.00000015
H        2.74092701       4.06228557       3.43665866       1.00800000      -0.00000018      -0.00000007       0.00000003
H        6.30080139       3.71930230       3.89164035       1.00800000      -0.00000008       0.00000009       0.00000015
H        2.92514018       3.24586713       1.38357619       1.00800000      -0.00000036       0.00000009       0.00000020
H        2.98666957       5.35856865       3.51158220       1.00800000      -0.00000019      -0.00000014       0.00000028
H        2.08215487       1.05432595       3.66773923       1.00800000      -0.00000035      -0.00000002      -0.00000007
H        3.71213143       3.08413570       5.50496993       1.00800000       0.00000013       0.00000012       0.00000025
H        0.69004366       5.48173615       0.28903155       1.00800000      -0.00000001       0.00000017      -0.00000012
H        5.32624248       3.47999501       4.15846392       1.00800000      -0.00000014      -0.00000007      -0.00000028
H        4.51157146       5.77774276       2.13047982       1.00800000       0.00000024      -0.00000012       0.00000037
H        6.23923528       3.48646034       2.27377932       1.00800000       0.00000009       0.00000001      -0.00000011
H        2.48223359       5.76686798       0.72879232       1.00800000       0.00000014      -0.00000007      -0.00000014
H        6.05915296       0.85113997       2.42715430       1.00800000       0.00000003       0.00000004      -0.00000012
H        1.08448472       2.69190399       5.53354902       1.00800000      -0.00000017       0.00000017       0.00000015
H        0.20607994       4.86411318       5.82730696       1.00800000      -0.00000008       0.00000004       0.00000006
H        2.63904782       1.48725993       1.45893218       1.00800000       0.00000007      -0.00000014      -0.00000002
H        4.32377411       3.31877255       0.09715981       1.00800000      -0.00000006       0.00000016       0.00000037
H        1.29260497       1.58782502       5.35361463       1.00800000      -0.00000009       0.00000010      -0.00000019
H        4.41435728       1.37236370       5.73213533       1.00800000       0.00000001       0.00000005      -0.00000019
H        5.19534173       1.32909724       2.01354598       1.00800000       0.00000008       0.00000016      -0.00000002
H        2.99132937       1.72930464       3.45217956       1.00800000      -0.00000009      -0.00000040       0.00000046
H        0.59950194       2.25490097       1.21789007       1.00800000      -0.00000010      -0.00000011      -0.00000008
H        0.27705229       4.19483709       0.31470434       1.00800000       0.00000004      -0.00000013      -0.00000015
H        4.60302989       4.27636237       5.96334101       1.00800000      -0.00000002       0.00000017      -0.00000001
H        4.56907932       5.72846361       5.78225473       1.00800000       0.00000009      -0.00000037       0.00000049
H        0.31107793       0.03744390       3.20486642       1.00800000       0.00000014       0.00000011      -0.00000006
H        0.39493909       3.24950672       4.91433856       1.00800000      -0.00000008       0.00000012      -0.00000004
H        2.59749734       4.78003937       2.65818567       1.00800000       0.00000012      -0.00000002      -0.00000007
H        0.10306282       4.30887903       4.83161755       1.00800000       0.00000006       0.00000016       0.00000010
H        2.19721977       4.62946732       0.75422100       1.00800000       0.00000032      -0.00000010       0.00000006
H        4.69288688       1.89280323       2.75090188       1.00800000      -0.00000025       0.00000003      -0.00000019
H        0.96908467       4.14395168       5.50038820       1.00800000      -0.00000000       0.00000013       0.00000029
H        0.20564222       5.42783143       4.84774141       1.00800000      -0.00000009       0.00000005      -0.00000002
H        4.23416689       2.50658521       0.84544837       1.00800000       0.00000014      -0.00000021      -0.00000007
H        5.61661836       1.74133493       6.06974147       1.00800000      -0.00000008      -0.00000001      -0.00000016
H        1.83607170       4.50827343       3.84145798       1.00800000      -0.00000002      -0.00000010       0.00000025
H        0.45063474       1.55956739       2.66489649       1.00800000       0.00000002      -0.00000003       0.00000001
H        2.72401483       3.25595833       5.98315646       1.00800000       0.00000014       0.00000022       0.00000038
H        5.23631358       2.10384751       1.25937261       1.00800000       0.00000004      -0.00000002      -0.00000016
H        5.28379260       3.45129030       5.99242965       1.00800000      -0.00000022       0.00000003      -0.00000014
H        5.94700511       5.49966060       0.20978433       1.00800000       0.00000011      -0.00000008      -0.00000011
H        1.67832542       5.20389682       2.34409452       1.00800000       0.00000020      -0.00000031      -0.00000031
H        1.89217237       2.65563427       6.26729415       1.00800000       0.00000002       0.00000029      -0.00000002
H        5.63604412       4.43851819       6.27007003       1.00800000      -0.00000009      -0.00000003       0.00000005
H        4.60297326       3.80065713       2.09914103       1.00800000      -0.00000004      -0.00000030       0.00000006
H        0.28143672       1.90926482       3.69270319       1.00800000       0.00000002       0.00000013      -0.00000003
H        2.93882766       4.90694317       0.01595886       1.00800000      -0.00000003      -0.00000006      -0.00000012
H        0.48283602       0.17176589       0.50664471       1.00800000       0.00000012       0.00000017      -0.00000011
H        2.46018020       2.15975501       4.27073743       1.00800000      -0.00000019       0.00000021       0.00000022
H        3.66417679       3.23998700       2.15875000       1.00800000      -0.00000024      -0.00000020       0.00000022
H        5.49057056       3.53630362       3.04497913       1.00800000      -0.00000012       0.00000004      -0.00000028
H        2.69183152       2.99809823       3.63726002       1.00800000      -0.00000024      -0.00000001       0.00000006
H        3.98809130       1.12707334       3.21493573       1.00800000      -0.00000029       0.00000006       0.00000010
H        4.27635301       1.55559408       1.38285960       1.00800000       0.00000014      -0.00000012       0.00000010
H        0.58498817       4.81690026       1.11861817       1.00800000      -0.00000015       0.00000012      -0.00000024
H        0.00068987       5.75958784       1.19723618       1.00800000      -0.00000013       0.00000016      -0.00000006
H        6.32093720       3.74164072       5.77252168       1.00800000      -0.00000019       0.00000002      -0.00000009
H        1.92839303       0.42528363       2.78634888       1.00800000      -0.00000004      -0.00000011      -0.00000007
H        5.13188554       5.40104087       3.11388502       1.00800000      -0.00000014       0.00000008      -0.00000013
H        1.42407605       2.81530684       0.85308694       1.00800000      -0.00000017      -0.00000008      -0.00000010
H        4.66183532       4.90001137       5.08194302       1.00800000      -0.00000012       0.00000000      -0.00000008
H        1.10528221       6.10157283       4.82662573       1.00800000       0.00000003      -0.00000010      -0.00000019
H        4.41042402       4.80543123       2.51172058       1.00800000       0.00000008      -0.00000023      -0.00000015
H        6.13903248       1.68894623       1.65856187       1.00800000       0.00000003      -0.00000020      -0.00000034
H        2.80264066       5.95232331       6.08942708       1.00800000       0.00000006      -0.00000001      -0.00000015
H        1.25709241       2.15999103       2.07020561       1.00800000      -0.00000018       0.00000031      -0.00000008
H        1.85634772       6.18545554       1.84295577       1.00800000      -0.00000007      -0.00000020      -0.00000007
H        6.25618829       0.61134593       1.38464976       1.00800000      -0.00000015      -0.00000012      -0.00000013
H        5.10883996       1.00624784       3.24364848       1.00800000       0.00000006       0.00000006      -0.00000042
H        4.00890832       5.54654892       3.15271290       1.00800000      -0.00000028      -0.00000033      -0.00000017
H        2.29589055       3.68975554       4.37960743       1.00800000      -0.00000003      -0.00000013       0.00000028
H        1.49685173       1.42923184       2.81743438       1.00800000       0.00000007       0.00000002      -0.00000044
H        2.50330823       6.31773442       3.58123143       1.00800000      -0.00000021      -0.00000016       0.00000001
H        0.84391605       0.98874163       3.50905219       1.00800000       0.00000022       0.00000018      -0.00000007
H        5.07789756       5.85233029       4.82632326       1.00800000      -0.00000009      -0.00000005       0.00000035
H        5.43120584       4.15367621       5.17835214       1.00800000      -0.00000008       0.00000004      -0.00000013
H        0.50277929       0.55568223       5.28907123       1.00800000       0.00000008      -0.00000002      -0.00000010
H        4.26025550       0.82735697       2.17319562       1.00800000       0.00000017       0.00000022       0.00000055
H        5.25048758       5.79317758       1.17941192       1.00800000      -0.00000025       0.00000081       0.00000052
H        2.81051897       2.95336629       4.94042960       1.00800000       0.00000008       0.00000001       0.00000042
H        5.49106094       6.26760753       5.88755152       1.00800000      -0.00000004      -0.00000010      -0.00000021
H        3.20565961       6.10861446       1.44502197       1.00800000       0.00000035      -0.00000008      -0.00000031
H        0.10643606       1.23894924       4.53953028       1.00800000       0.00000011       0.00000010      -0.00000006
H        5.86212998       2.02374165       5.04842366       1.00800000      -0.00000010       0.00000007      -0.00000014
H        1.41032691       0.11649051       3.69869702       1.00800000      -0.00000009      -0.00000005      -0.00000005
H        5.02913257       2.49727628       4.52798779       1.00800000      -0.00000004      -0.00000002      -0.00000017
H        4.78718145       0.44419327       5.19361586       1.00800000       0.00000008       0.00000012      -0.00000023
H        0.88396435       3.17772215       1.76799512       1.00800000      -0.00000049      -0.00000010      -0.00000013
H        5.40527523       4.48292726       2.54911539       1.00800000       0.00000011       0.00000014      -0.00000006
H        5.62520387       0.01608769       2.99936266       1.00800000       0.00000009       0.00000004       0.00000014
H        3.49285924       1.76050711       0.62837611       1.00800000       0.00000010      -0.00000021      -0.00000003
H        1.00207410       2.39415115       3.08004565       1.00800000       0.00000003       0.00000001       0.00000003
H        0.69041011       5.41398569       2.00419256       1.00800000       0.00000009       0.00000009      -0.00000030
H        0.19180034       3.85908000       1.32444514       1.00800000      -0.00000017       0.00000012      -0.00000016
H        2.50023111       2.37224003       0.77769576       1.00800000      -0.00000017      -0.00000008       0.00000002
H        4.35905520       3.10376744       3.92098858       1.00800000      -0.00000021      -0.00000010       0.00000009
H        3.76110356       0.77758418       5.03295376       1.00800000      -0.00000002      -0.00000036      -0.00000014
H        4.11175947       0.86443064       0.51150784       1.00800000       0.00000013      -0.00000020       0.00000022
H        4.87019629       4.11064876       0.73179090       1.00800000      -0.00000021       0.00000002       0.00000026
H        6.04462141       2.87712166       1.38340704       1.00800000      -0.00000000       0.00000004      -0.00000009
H        5.98363161       5.84439143       3.93340512       1.00800000       0.00000031      -0.00000005      -0.00000002
H        2.17866834       1.25899663       4.72341571       1.00800000       0.00000000       0.00000006      -0.00000004
H        0.77715463       5.64735860       3.85064848       1.00800000      -0.00000007      -0.00000007      -0.00000025
H        4.54132684       0.14330287       2.92983287       1.00800000      -0.00000014      -0.00000015       0.00000049
H        2.10646908       0.38438225       6.35471760       1.00800000       0.00000001      -0.00000011      -0.00000003
H        3.79570481       4.97403248       5.74897158       1.00800000      -0.00000014       0.00000007      -0.00000016
H        4.21504258       0.10859301       1.36662063       1.00800000       0.00000036       0.00000016       0.00000067
H        0.18090649       5.98999426       5.81169612       1.00800000      -0.00000001       0.00000006      -0.00000014
H        3.58745614       3.38535621       3.22822122       1.00800000      -0.00000018      -0.00000009       0.00000014
H        6.32101605       2.65558181       5.87376365       1.00800000      -0.00000023       0.00000001      -0.00000003
H        0.88199498       4.11178826       3.62463564       1.00800000      -0.00000005       0.00000000       0.00000010
H        4.95829162       6.20178354       3.83655695       1.00800000       0.00000042      -0.00000017       0.00000027
H        1.70055175       4.13694371       2.80872721       1.00800000       0.00000003       0.00000006       0.00000014
H        2.98891530       0.74601625       3.05771494       1.00800000      -0.00000012      -0.00000026      -0.00000004
H        1.85564898       4.38865011       1.74248485       1.00800000       0.00000067      -0.00000018       0.00000023
H        3.70131188       5.11353504       4.64017509       1.00800000      -0.00000009       0.00000012      -0.00000011
H        6.23662422       0.74199406       6.19807010       1.00800000       0.00000005      -0.00000003      -0.00000024
H        0.76102508       1.26045306       1.63611756       1.00800000       0.00000008      -0.00000008       0.00000002
H        1.74340199       3.00351111       2.57237318       1.00800000       0.00000035      -0.00000021       0.00000041
H        5.75384188       1.28934264       0.68204908       1.00800000      -0.00000000      -0.00000012      -0.00000030
H        3.37962031       2.30986140       1.54485254       1.00800000      -0.00000005       0.00000013      -0.00000028
H        2.84983242       4.03194188       5.23566717       1.00800000      -0.00000007       0.00000012       0.00000026
H        3.98897237       4.63090537       0.43055510       1.00800000       0.00000008       0.00000031      -0.00000013
H        5.79549793       1.82813707       2.88374703       1.00800000      -0.00000002       0.00000014      -0.00000023
H        5.74091977       0.15088864       0.57179314       1.00800000       0.00000007      -0.00000010      -0.00000032
H        4.58026352       1.82302098       3.82472534       1.00800000       0.00000014      -0.00000006      -0.00000027
H        5.44227074       2.67655253       2.27775916       1.00800000      -0.00000020       0.00000020      -0.00000014
H        4.74657760       1.69285607       0.37971834       1.00800000       0.00000002      -0.00000017      -0.00000008
H        1.60671953       2.76531448       4.53120427       1.00800000      -0.00000023       0.00000014       0.00000026
H        6.15265251       0.93035133       3.48797830       1.00800000       0.00000015       0.00000019      -0.00000017
H        2.95851738       5.91819316       4.48885600       1.00800000       0.00000024       0.00000042       0.00000000
H        3.39935529       3.66921349       4.27178022       1.00800000      -0.00000015      -0.00000012       0.00000010
H        4.59958514       5.20261399       4.02611226       1.00800000      -0.00000010       0.00000000      -0.00000010
H        2.89188900       2.17313515       6.12487430       1.00800000       0.00000001       0.00000002       0.00000004
H        3.11989738       4.04223073       0.69566686       1.00800000       0.00000026      -0.00000018      -0.00000001
H        2.35105317       0.42843990       1.07968625       1.00800000       0.00000008      -0.00000017      -0.00000007
H        5.84551060       4.72133756       0.93530777       1.00800000       0.00000008      -0.00000006      -0.00000004
H        0.73101702       2.97162246       3.92590725       1.00800000      -0.00000003       0.00000011      -0.00000000
H        5.62348777       1.70456571       4.00705293       1.00800000       0.00000007       0.00000008      -0.00000014
H        4.97656257       4.82737047       1.58482348       1.00800000       0.00000024       0.00000037      -0.00000010
H        5.25434231       0.22032645       1.99614274       1.00800000      -0.00000028       0.00000023       0.00000053
H        3.39612774       1.17610102       6.03980076       1.00800000       0.00000007      -0.00000009      -0.00000005
H        0.42076174       3.14019118       0.56036898       1.00800000      -0.00000015      -0.00000008      -0.00000004
H        1.90679092       4.52859529       5.03023289       1.00800000      -0.00000003       0.00000014       0.00000019
H        0.36668800       0.25202558       4.22326546       1.00800000       0.00000007       0.00000009      -0.00000006
H        1.65026910       0.57177181       5.39971781       1.00800000      -0.00000001       0.00000008      -0.00000003
H        2.91387282       4.29675653       1.71123018       1.00800000       0.00000060       0.00000010       0.00000001
H        6.23860821       4.72184170       1.94663680       1.00800000       0.00000018      -0.00000001       0.00000001
H        2.49384282       1.53538627       2.50723381       1.00800000       0.00000027      -0.00000016       0.00000006
H        4.95141024       2.45405024       5.62471873       1.00800000       0.00000003       0.00000004      -0.00000017
H        5.73122330       0.96554488       5.31016590       1.00800000      -0.00000001       0.00000011      -0.00000018
H        3.57264678       1.64394123       2.35722746       1.00800000       0.00000024       0.00000041      -0.00000010
H        5.59478556       5.24805898       5.55820839       1.00800000      -0.00000004      -0.00000020      -0.00000003
H        0.78881216       3.42359497       2.83700525       1.00800000       0.00000023       0.00000010      -0.00000014
H        4.10509994       2.17388358       5.01794092       1.00800000      -0.00000003       0.00000025       0.00000002
H        1.91133882       5.36290917       6.28425744       1.00800000       0.00000002       0.00000003      -0.00000003
H        3.89690908       4.12435141       5.10806481       1.00800000      -0.00000008       0.00000004      -0.00000011
H        3.51963560       3.96878994       6.08995963       1.00800000       0.00000018       0.00000017      -0.00000002
H        1.18828567       0.88925011       4.49971733       1.00800000       0.00000005      -0.00000002      -0.00000006
H        0.03882118       4.28309721       2.94840115       1.00800000       0.00000004      -0.00000009      -0.00000000
H        4.51993005       4.00413512       3.20918381       1.00800000      -0.00000011      -0.00000012       0.00000002
H        1.66023494       1.63408770       0.09182559       1.00800000       0.00000015       0.00000029      -0.00000002
H        3.95822990       4.48144733       1.55824898       1.00800000       0.00000047      -0.00000009      -0.00000035
H        3.24143344       5.08408230       1.02164226       1.00800000       0.00000008      -0.00000016      -0.00000013
H        3.67317323       1.50770096       4.24145091       1.00800000       0.00000037       0.00000001       0.00000025
H        2.78523968       0.39122428       5.32466150       1.00800000      -0.00000005      -0.00000000      -0.00000011
H        5.60529429       4.98418847       4.51407053       1.00800000      -0.00000010       0.00000009      -0.00000012
H        0.80853315       2.24536689       0.11036307       1.00800000      -0.00000019      -0.00000017      -0.00000006
H        5.26603829       2.57734395       3.46779350       1.00800000       0.00000005       0.00000005      -0.00000015
H        5.71262151       3.10751821       5.10175559       1.00800000      -0.00000010       0.00000008      -0.00000015
H        3.56578853       5.94807289       5.37719662       1.00800000       0.00000027       0.00000018       0.00000000
H        0.44742353       1.34460899       0.61083884       1.00800000      -0.00000003      -0.00000015       0.00000010
H        1.67173534       3.34955171       3.57546856       1.00800000      -0.00000006       0.00000016       0.00000023
H        6.14897104       2.25115775       0.51668383       1.00800000      -0.00000011      -0.00000009      -0.00000003
H        4.04764200       0.31049904       5.97972428       1.00800000       0.00000037       0.00000007      -0.00000001
H        2.15798568       4.22281477       6.06573774       1.00800000      -0.00000019      -0.00000000       0.00000018
H        4.54044374       3.00957413       2.82214913       1.00800000      -0.00000025      -0.00000017       0.00000012
H        0.22168296       2.47884095       2.23281395       1.00800000      -0.00000036      -0.00000019      -0.00000004
H        2.48947779       5.30441643       1.69744116       1.00800000       0.00000004       0.00000003       0.00000004
H        4.68226782       6.24787325       0.39488844       1.00800000      -0.00000012       0.00000004       0.00000023
H        5.50222854       0.65092181       4.28932816       1.00800000       0.00000013       0.00000021      -0.00000021
H        0.02808115       6.22789730       2.18635305       1.00800000       0.00000018       0.00000008       0.00000002
H        1.01780819       4.82153468       4.49058388       1.00800000       0.00000007       0.00000026       0.00000008
H        1.86331306       3.43134818       5.37139701       1.00800000       0.00000003       0.00000001       0.00000025
H        3.10169182       1.77531870       5.11418188       1.00800000      -0.00000000       0.00000004      -0.00000000
H        3.63775311       0.09143692       3.59000203       1.00800000      -0.00000032      -0.00000036       0.00000000
H        5.78237170       3.56089822       0.58217400       1.00800000      -0.00000016       0.00000003      -0.00000010
H        1.75418640       0.95718251       1.85511828       1.00800000       0.00000009      -0.00000024      -0.00000017
H        6.29086751       2.82735389       3.17969933       1.00800000       0.00000008       0.00000025      -0.00000005
H        2.05615151       2.23200452       3.25277688       1.00800000       0.00000000      -0.00000040       0.00000025
H        3.20146989       0.30845516       0.42233835       1.00800000       0.00000003       0.00000007      -0.00000014
H        1.23790515       4.58342829       0.13054873       1.00800000       0.00000004       0.00000016       0.00000045
H        3.48701336       2.55803536       4.21743671       1.00800000      -0.00000027      -0.00000006       0.00000009
H        2.07025914       0.20363748       4.50968852       1.00800000      -0.00000001       0.00000008      -0.00000003
H        3.48360053       5.28280361       2.15241097       1.00800000       0.00000022      -0.00000015      -0.00000031
H        4.39788698       2.48300703       1.90896284       1.00800000      -0.00000006       0.00000014      -0.00000015
H        6.26903885       5.39446845       2.94586941       1.00800000       0.00000014       0.00000003       0.00000008
H        1.63817695       1.80345171       1.14681958       1.00800000      -0.00000005      -0.00000007       0.00000009
H        5.43863477       4.45331096       3.62260250       1.00800000      -0.00000007       0.00000001      -0.00000010
H        2.72528946       0.52273791       2.06566082       1.00800000       0.00000001      -0.00000031      -0.00000007
H        2.64236114       3.58132620       2.46820004       1.00800000      -0.00000007       0.00000020      -0.00000013