72
Lattice="9.8 0.0 0.0 -4.899999999999999 8.4870489570875 0.0 0.0 0.0 10.8" Properties=species:S:1:pos:R:3:charge:R:1:forces:R:3 energy=-1375.0226403973911 stress="-0.03132573888287203 -1.0329541016357977e-05 8.635993146882668e-06 -1.0329541016357977e-05 -0.0313093970419039 6.889653657232099e-06 8.635993146882668e-06 6.889653657232099e-06 -0.033859199117017166" free_energy=-1375.0226403973911 pbc="T T T"
Si      -1.11422415       1.92903466       3.59829711       2.40000000       0.00020525      -0.00014558       0.00000234
Si       2.25585437       0.00718942       1.80196239       2.40000000       0.00011627       0.00008237      -0.00002098
Si       1.33388098       2.29986380      -0.01242583       2.40000000      -0.00007135      -0.00005545      -0.00013917
O       -1.03005128       3.04529964       2.44917600      -1.20000000       0.00011765       0.00000596       0.00019241
O        0.33186051       1.77423639       4.25160959      -1.20000000       0.00023167       0.00001032       0.00005821
O        1.41326406       1.18828716       1.14136241      -1.20000000       0.00000090      -0.00008751      -0.00013662
O        0.73396484       3.62709736       0.63602430      -1.20000000      -0.00006704      -0.00006487      -0.00005342
O        3.17205666       0.62743729       2.96284639      -1.20000000      -0.00009970       0.00005291       0.00011834
O        2.77133939       2.46601262       4.74686357      -1.20000000       0.00015975       0.00013610       0.00021079
Si       3.77447408       1.95780738       3.60198032       2.40000000      -0.00001856       0.00004274       0.00009649
Si       7.14184240      -0.00365968       1.80091098       2.40000000      -0.00047368       0.00070619      -0.00004750
Si       6.23760960       2.30376468       0.00985821       2.40000000       0.00006280       0.00020114      -0.00002959
O        3.86033572       3.06017835       2.44037353      -1.20000000      -0.00002989      -0.00004879      -0.00004964
O        5.21941466       1.79719224       4.25632421      -1.20000000       0.00006278       0.00014759      -0.00001417
O        6.30009207       1.19174722       1.16445271      -1.20000000       0.00005876       0.00039226       0.00024576
O        5.64896304       3.63884451       0.65170910      -1.20000000       0.00005426       0.00010656       0.00003569
O        8.08870380       0.60219807       2.94634814      -1.20000000       0.00021211      -0.00007449      -0.00018896
O        7.67894725       2.42280525       4.74595742      -1.20000000       0.00017453      -0.00043427       0.00004194
Si      -3.58620674       6.21233567       3.59923344       2.40000000       0.00007010      -0.00000263       0.00005956
Si      -0.19019593       4.23392325       1.79834999       2.40000000       0.00007535       0.00000516       0.00004948
Si      -1.13264049       6.52447950       0.01144936       2.40000000       0.00011770       0.00004559       0.00010469
O       -3.51289494       7.32165403       2.44315083      -1.20000000       0.00006566       0.00001348      -0.00001684
O       -2.13551533       6.05874776       4.24162583      -1.20000000       0.00019196       0.00005706      -0.00010041
O       -1.06105044       5.40746772       1.16080153      -1.20000000       0.00010937       0.00008013       0.00016019
O       -1.71083863       7.86029347       0.66151137      -1.20000000       0.00024437       0.00016419       0.00005164
O        0.73913686       4.86115228       2.94619172      -1.20000000       0.00022357      -0.00001051      -0.00006803
O        0.31944656       6.66723187       4.76274597      -1.20000000       0.00035545       0.00019867      -0.00017385
Si       1.31787969       6.19460236       3.60057117       2.40000000       0.00010114       0.00012874      -0.00020565
Si       4.70730306       4.24877240       1.79874336       2.40000000       0.00030675      -0.00063569       0.00002516
Si       3.75454671       6.52569463      -0.00886989       2.40000000      -0.00024825      -0.00010687      -0.00003247
O        1.37407643       7.31711489       2.45515188      -1.20000000      -0.00028844       0.00031263      -0.00002370
O        2.77205322       6.05752759       4.23898621      -1.20000000      -0.00003988       0.00015102       0.00002764
O        3.83988915       5.41467846       1.14475732      -1.20000000      -0.00005898      -0.00006519      -0.00011289
O        3.14824598       7.84980514       0.63954922      -1.20000000      -0.00049440      -0.00007122      -0.00026885
O        5.61914063       4.88024635       2.95672283      -1.20000000       0.00003130       0.00002417       0.00001615
O        5.21790134       6.70466002       4.75601168      -1.20000000      -0.00007171       0.00007813      -0.00004575
Si      -1.12315082       1.94475413       9.00367198       2.40000000      -0.00016484       0.00015464       0.00002226
Si       2.27110028       0.00790182       7.20869881       2.40000000       0.00007069      -0.00015765      -0.00004096
Si       1.32680774       2.29318347       5.39892062       2.40000000       0.00005389      -0.00000489       0.00017358
O       -1.06437129       3.05139985       7.84373557      -1.20000000      -0.00019654      -0.00002038      -0.00006628
O        0.33253248       1.80080383       9.63741172      -1.20000000      -0.00026531      -0.00012363       0.00004583
O        1.42363752       1.19223373       6.56071716      -1.20000000       0.00015555       0.00004274       0.00013296
O        0.70688196       3.61709882       6.03515098      -1.20000000      -0.00001644       0.00006623       0.00012642
O        3.20296305       0.61993460       8.36215253      -1.20000000       0.00020766      -0.00018432      -0.00016139
O        2.78178773       2.45816388      10.14009492      -1.20000000      -0.00012299      -0.00015195      -0.00019944
Si       3.79183410       1.95841929       8.99781626       2.40000000       0.00009216      -0.00025418       0.00007610
Si       7.14546302      -0.00070672       7.21185085       2.40000000      -0.00015853       0.00008051       0.00003152
Si       6.23119356       2.28866366       5.40078064       2.40000000       0.00006033       0.00013462      -0.00001586
O        3.86986942       3.05940675       7.83452650      -1.20000000      -0.00009669      -0.00038879       0.00013842
O        5.23719870       1.81561711       9.65486694      -1.20000000       0.00012577      -0.00008020       0.00006157
O        6.29884550       1.18407707       6.56232062      -1.20000000      -0.00023792       0.00000242      -0.00003247
O        5.65136913       3.62949638       6.03979877      -1.20000000       0.00009921       0.00005760       0.00016834
O        8.07570997       0.61299103       8.36613938      -1.20000000      -0.00034152       0.00016274       0.00011654
O        7.68920818       2.44292413      10.16552967      -1.20000000       0.00004492       0.00047134       0.00001668
Si      -3.58494476       6.20764481       9.00215297       2.40000000      -0.00003463      -0.00018456       0.00002978
Si      -0.21820336       4.23423544       7.19104680       2.40000000      -0.00026159       0.00003090      -0.00005790
Si      -1.13445213       6.53108226       5.40168245       2.40000000       0.00036871       0.00020119      -0.00026748
O       -3.49714106       7.32512183       7.85500737      -1.20000000       0.00006057      -0.00008053       0.00011094
O       -2.14210816       6.04742583       9.66016019      -1.20000000      -0.00004074       0.00007016       0.00018796
O       -1.08031929       5.41166759       6.54973426      -1.20000000       0.00004993       0.00018036      -0.00029911
O       -1.70957898       7.86621392       6.05458407      -1.20000000       0.00001492      -0.00001471      -0.00014369
O        0.71130507       4.86036274       8.33891297      -1.20000000      -0.00023359      -0.00002989      -0.00001239
O        0.31544764       6.66525779      10.15904358      -1.20000000       0.00003037       0.00000308      -0.00003254
Si       1.30955024       6.18367009       8.99631595       2.40000000      -0.00007283      -0.00005358      -0.00011682
Si       4.71624591       4.24631576       7.18846240       2.40000000      -0.00021450      -0.00026740       0.00016071
Si       3.76843460       6.54153369       5.39855314       2.40000000       0.00006817      -0.00002187       0.00012993
O        1.38320611       7.30981704       7.85529918      -1.20000000      -0.00014877       0.00003572      -0.00009867
O        2.76191926       6.02430122       9.63494805      -1.20000000      -0.00002542      -0.00022620      -0.00017282
O        3.84935287       5.41612829       6.53915223      -1.20000000      -0.00004851      -0.00030600      -0.00002725
O        3.17050309       7.86399352       6.05829367      -1.20000000      -0.00002339      -0.00013386       0.00020735
O        5.63024257       4.87866464       8.34458743      -1.20000000      -0.00000483      -0.00023488       0.00006975
O        5.20305505       6.69414150      10.14756498      -1.20000000      -0.00018082      -0.00011480      -0.00002954
