192
Lattice="14.0 0.0 0.0 0.0 14.0 0.0 0.0 0.0 14.0" Properties=species:S:1:pos:R:3:charge:R:1:forces:R:3 energy=-3715.936943983539 stress="0.0004941712401301841 -9.722664981056267e-17 4.772389378806127e-17 -9.722664981056267e-17 0.0004941712401303821 -1.2376816299290462e-16 4.772389378806127e-17 -1.2376816299290462e-16 0.0004941712401303743" free_energy=-3715.936943983539 pbc="T T T"
Si       6.79814436       3.70185564       3.29814436       2.40000000       0.00000147      -0.00000147       0.00000147
Si       3.70185564       3.29814436       6.79814436       2.40000000      -0.00000147       0.00000147       0.00000147
Si       3.29814436       6.79814436       3.70185564       2.40000000       0.00000147       0.00000147      -0.00000147
Si       0.20185564       0.20185564       0.20185564       2.40000000      -0.00000147      -0.00000147      -0.00000147
Si       4.95170694       5.54829306       1.45170694       2.40000000       0.00000362      -0.00000362       0.00000362
Si       5.54829306       1.45170694       4.95170694       2.40000000      -0.00000362       0.00000362       0.00000362
Si       1.45170694       4.95170694       5.54829306       2.40000000       0.00000362       0.00000362      -0.00000362
Si       2.04829306       2.04829306       2.04829306       2.40000000      -0.00000362      -0.00000362      -0.00000362
O        6.05153513       2.34394697       3.72202081      -1.20000000      -0.00000194      -0.00000187       0.00000577
O        2.55153513       1.15605303       3.27797919      -1.20000000      -0.00000194       0.00000187      -0.00000577
O        0.94846487       5.84394697       6.77797919      -1.20000000       0.00000194      -0.00000187      -0.00000577
O        1.15605303       3.27797919       2.55153513      -1.20000000       0.00000187      -0.00000577      -0.00000194
O        6.77797919       0.94846487       5.84394697      -1.20000000      -0.00000577       0.00000194      -0.00000187
O        3.27797919       2.55153513       1.15605303      -1.20000000      -0.00000577      -0.00000194       0.00000187
O        2.34394697       3.72202081       6.05153513      -1.20000000      -0.00000187       0.00000577      -0.00000194
O        3.72202081       6.05153513       2.34394697      -1.20000000       0.00000577      -0.00000194      -0.00000187
O        1.11924188       1.11924188       1.11924188      -1.20000000      -0.00000512      -0.00000512      -0.00000512
O        2.38075812       5.88075812       4.61924188      -1.20000000       0.00000512       0.00000512      -0.00000512
O        4.61924188       2.38075812       5.88075812      -1.20000000      -0.00000512       0.00000512       0.00000512
O        5.88075812       4.61924188       2.38075812      -1.20000000       0.00000512      -0.00000512       0.00000512
O        4.44846487       4.65605303       0.22202081      -1.20000000       0.00000194       0.00000187       0.00000577
O        0.22202081       4.44846487       4.65605303      -1.20000000       0.00000577       0.00000194       0.00000187
O        4.65605303       0.22202081       4.44846487      -1.20000000       0.00000187       0.00000577       0.00000194
O        5.84394697       6.77797919       0.94846487      -1.20000000      -0.00000187      -0.00000577       0.00000194
Si      13.79814436       3.70185564       3.29814436       2.40000000       0.00000147      -0.00000147       0.00000147
Si      10.70185564       3.29814436       6.79814436       2.40000000      -0.00000147       0.00000147       0.00000147
Si      10.29814436       6.79814436       3.70185564       2.40000000       0.00000147       0.00000147      -0.00000147
Si       7.20185564       0.20185564       0.20185564       2.40000000      -0.00000147      -0.00000147      -0.00000147
Si      11.95170694       5.54829306       1.45170694       2.40000000       0.00000362      -0.00000362       0.00000362
Si      12.54829306       1.45170694       4.95170694       2.40000000      -0.00000362       0.00000362       0.00000362
Si       8.45170694       4.95170694       5.54829306       2.40000000       0.00000362       0.00000362      -0.00000362
Si       9.04829306       2.04829306       2.04829306       2.40000000      -0.00000362      -0.00000362      -0.00000362
O       13.05153513       2.34394697       3.72202081      -1.20000000      -0.00000194      -0.00000187       0.00000577
O        9.55153513       1.15605303       3.27797919      -1.20000000      -0.00000194       0.00000187      -0.00000577
O        7.94846487       5.84394697       6.77797919      -1.20000000       0.00000194      -0.00000187      -0.00000577
O        8.15605303       3.27797919       2.55153513      -1.20000000       0.00000187      -0.00000577      -0.00000194
O       13.77797919       0.94846487       5.84394697      -1.20000000      -0.00000577       0.00000194      -0.00000187
O       10.27797919       2.55153513       1.15605303      -1.20000000      -0.00000577      -0.00000194       0.00000187
O        9.34394697       3.72202081       6.05153513      -1.20000000      -0.00000187       0.00000577      -0.00000194
O       10.72202081       6.05153513       2.34394697      -1.20000000       0.00000577      -0.00000194      -0.00000187
O        8.11924188       1.11924188       1.11924188      -1.20000000      -0.00000512      -0.00000512      -0.00000512
O        9.38075812       5.88075812       4.61924188      -1.20000000       0.00000512       0.00000512      -0.00000512
O       11.61924188       2.38075812       5.88075812      -1.20000000      -0.00000512       0.00000512       0.00000512
O       12.88075812       4.61924188       2.38075812      -1.20000000       0.00000512      -0.00000512       0.00000512
O       11.44846487       4.65605303       0.22202081      -1.20000000       0.00000194       0.00000187       0.00000577
O        7.22202081       4.44846487       4.65605303      -1.20000000       0.00000577       0.00000194       0.00000187
O       11.65605303       0.22202081       4.44846487      -1.20000000       0.00000187       0.00000577       0.00000194
O       12.84394697       6.77797919       0.94846487      -1.20000000      -0.00000187      -0.00000577       0.00000194
Si       6.79814436      10.70185564       3.29814436       2.40000000       0.00000147      -0.00000147       0.00000147
Si       3.70185564      10.29814436       6.79814436       2.40000000      -0.00000147       0.00000147       0.00000147
Si       3.29814436      13.79814436       3.70185564       2.40000000       0.00000147       0.00000147      -0.00000147
Si       0.20185564       7.20185564       0.20185564       2.40000000      -0.00000147      -0.00000147      -0.00000147
Si       4.95170694      12.54829306       1.45170694       2.40000000       0.00000362      -0.00000362       0.00000362
Si       5.54829306       8.45170694       4.95170694       2.40000000      -0.00000362       0.00000362       0.00000362
Si       1.45170694      11.95170694       5.54829306       2.40000000       0.00000362       0.00000362      -0.00000362
Si       2.04829306       9.04829306       2.04829306       2.40000000      -0.00000362      -0.00000362      -0.00000362
O        6.05153513       9.34394697       3.72202081      -1.20000000      -0.00000194      -0.00000187       0.00000577
O        2.55153513       8.15605303       3.27797919      -1.20000000      -0.00000194       0.00000187      -0.00000577
O        0.94846487      12.84394697       6.77797919      -1.20000000       0.00000194      -0.00000187      -0.00000577
O        1.15605303      10.27797919       2.55153513      -1.20000000       0.00000187      -0.00000577      -0.00000194
O        6.77797919       7.94846487       5.84394697      -1.20000000      -0.00000577       0.00000194      -0.00000187
O        3.27797919       9.55153513       1.15605303      -1.20000000      -0.00000577      -0.00000194       0.00000187
O        2.34394697      10.72202081       6.05153513      -1.20000000      -0.00000187       0.00000577      -0.00000194
O        3.72202081      13.05153513       2.34394697      -1.20000000       0.00000577      -0.00000194      -0.00000187
O        1.11924188       8.11924188       1.11924188      -1.20000000      -0.00000512      -0.00000512      -0.00000512
O        2.38075812      12.88075812       4.61924188      -1.20000000       0.00000512       0.00000512      -0.00000512
O        4.61924188       9.38075812       5.88075812      -1.20000000      -0.00000512       0.00000512       0.00000512
O        5.88075812      11.61924188       2.38075812      -1.20000000       0.00000512      -0.00000512       0.00000512
O        4.44846487      11.65605303       0.22202081      -1.20000000       0.00000194       0.00000187       0.00000577
O        0.22202081      11.44846487       4.65605303      -1.20000000       0.00000577       0.00000194       0.00000187
O        4.65605303       7.22202081       4.44846487      -1.20000000       0.00000187       0.00000577       0.00000194
O        5.84394697      13.77797919       0.94846487      -1.20000000      -0.00000187      -0.00000577       0.00000194
Si      13.79814436      10.70185564       3.29814436       2.40000000       0.00000147      -0.00000147       0.00000147
Si      10.70185564      10.29814436       6.79814436       2.40000000      -0.00000147       0.00000147       0.00000147
Si      10.29814436      13.79814436       3.70185564       2.40000000       0.00000147       0.00000147      -0.00000147
Si       7.20185564       7.20185564       0.20185564       2.40000000      -0.00000147      -0.00000147      -0.00000147
Si      11.95170694      12.54829306       1.45170694       2.40000000       0.00000362      -0.00000362       0.00000362
Si      12.54829306       8.45170694       4.95170694       2.40000000      -0.00000362       0.00000362       0.00000362
Si       8.45170694      11.95170694       5.54829306       2.40000000       0.00000362       0.00000362      -0.00000362
Si       9.04829306       9.04829306       2.04829306       2.40000000      -0.00000362      -0.00000362      -0.00000362
O       13.05153513       9.34394697       3.72202081      -1.20000000      -0.00000194      -0.00000187       0.00000577
O        9.55153513       8.15605303       3.27797919      -1.20000000      -0.00000194       0.00000187      -0.00000577
O        7.94846487      12.84394697       6.77797919      -1.20000000       0.00000194      -0.00000187      -0.00000577
O        8.15605303      10.27797919       2.55153513      -1.20000000       0.00000187      -0.00000577      -0.00000194
O       13.77797919       7.94846487       5.84394697      -1.20000000      -0.00000577       0.00000194      -0.00000187
O       10.27797919       9.55153513       1.15605303      -1.20000000      -0.00000577      -0.00000194       0.00000187
O        9.34394697      10.72202081       6.05153513      -1.20000000      -0.00000187       0.00000577      -0.00000194
O       10.72202081      13.05153513       2.34394697      -1.20000000       0.00000577      -0.00000194      -0.00000187
O        8.11924188       8.11924188       1.11924188      -1.20000000      -0.00000512      -0.00000512      -0.00000512
O        9.38075812      12.88075812       4.61924188      -1.20000000       0.00000512       0.00000512      -0.00000512
O       11.61924188       9.38075812       5.88075812      -1.20000000      -0.00000512       0.00000512       0.00000512
O       12.88075812      11.61924188       2.38075812      -1.20000000       0.00000512      -0.00000512       0.00000512
O       11.44846487      11.65605303       0.22202081      -1.20000000       0.00000194       0.00000187       0.00000577
O        7.22202081      11.44846487       4.65605303      -1.20000000       0.00000577       0.00000194       0.00000187
O       11.65605303       7.22202081       4.44846487      -1.20000000       0.00000187       0.00000577       0.00000194
O       12.84394697      13.77797919       0.94846487      -1.20000000      -0.00000187      -0.00000577       0.00000194
Si       6.79814436       3.70185564      10.29814436       2.40000000       0.00000147      -0.00000147       0.00000147
Si       3.70185564       3.29814436      13.79814436       2.40000000      -0.00000147       0.00000147       0.00000147
Si       3.29814436       6.79814436      10.70185564       2.40000000       0.00000147       0.00000147      -0.00000147
Si       0.20185564       0.20185564       7.20185564       2.40000000      -0.00000147      -0.00000147      -0.00000147
Si       4.95170694       5.54829306       8.45170694       2.40000000       0.00000362      -0.00000362       0.00000362
Si       5.54829306       1.45170694      11.95170694       2.40000000      -0.00000362       0.00000362       0.00000362
Si       1.45170694       4.95170694      12.54829306       2.40000000       0.00000362       0.00000362      -0.00000362
Si       2.04829306       2.04829306       9.04829306       2.40000000      -0.00000362      -0.00000362      -0.00000362
O        6.05153513       2.34394697      10.72202081      -1.20000000      -0.00000194      -0.00000187       0.00000577
O        2.55153513       1.15605303      10.27797919      -1.20000000      -0.00000194       0.00000187      -0.00000577
O        0.94846487       5.84394697      13.77797919      -1.20000000       0.00000194      -0.00000187      -0.00000577
O        1.15605303       3.27797919       9.55153513      -1.20000000       0.00000187      -0.00000577      -0.00000194
O        6.77797919       0.94846487      12.84394697      -1.20000000      -0.00000577       0.00000194      -0.00000187
O        3.27797919       2.55153513       8.15605303      -1.20000000      -0.00000577      -0.00000194       0.00000187
O        2.34394697       3.72202081      13.05153513      -1.20000000      -0.00000187       0.00000577      -0.00000194
O        3.72202081       6.05153513       9.34394697      -1.20000000       0.00000577      -0.00000194      -0.00000187
O        1.11924188       1.11924188       8.11924188      -1.20000000      -0.00000512      -0.00000512      -0.00000512
O        2.38075812       5.88075812      11.61924188      -1.20000000       0.00000512       0.00000512      -0.00000512
O        4.61924188       2.38075812      12.88075812      -1.20000000      -0.00000512       0.00000512       0.00000512
O        5.88075812       4.61924188       9.38075812      -1.20000000       0.00000512      -0.00000512       0.00000512
O        4.44846487       4.65605303       7.22202081      -1.20000000       0.00000194       0.00000187       0.00000577
O        0.22202081       4.44846487      11.65605303      -1.20000000       0.00000577       0.00000194       0.00000187
O        4.65605303       0.22202081      11.44846487      -1.20000000       0.00000187       0.00000577       0.00000194
O        5.84394697       6.77797919       7.94846487      -1.20000000      -0.00000187      -0.00000577       0.00000194
Si      13.79814436       3.70185564      10.29814436       2.40000000       0.00000147      -0.00000147       0.00000147
Si      10.70185564       3.29814436      13.79814436       2.40000000      -0.00000147       0.00000147       0.00000147
Si      10.29814436       6.79814436      10.70185564       2.40000000       0.00000147       0.00000147      -0.00000147
Si       7.20185564       0.20185564       7.20185564       2.40000000      -0.00000147      -0.00000147      -0.00000147
Si      11.95170694       5.54829306       8.45170694       2.40000000       0.00000362      -0.00000362       0.00000362
Si      12.54829306       1.45170694      11.95170694       2.40000000      -0.00000362       0.00000362       0.00000362
Si       8.45170694       4.95170694      12.54829306       2.40000000       0.00000362       0.00000362      -0.00000362
Si       9.04829306       2.04829306       9.04829306       2.40000000      -0.00000362      -0.00000362      -0.00000362
O       13.05153513       2.34394697      10.72202081      -1.20000000      -0.00000194      -0.00000187       0.00000577
O        9.55153513       1.15605303      10.27797919      -1.20000000      -0.00000194       0.00000187      -0.00000577
O        7.94846487       5.84394697      13.77797919      -1.20000000       0.00000194      -0.00000187      -0.00000577
O        8.15605303       3.27797919       9.55153513      -1.20000000       0.00000187      -0.00000577      -0.00000194
O       13.77797919       0.94846487      12.84394697      -1.20000000      -0.00000577       0.00000194      -0.00000187
O       10.27797919       2.55153513       8.15605303      -1.20000000      -0.00000577      -0.00000194       0.00000187
O        9.34394697       3.72202081      13.05153513      -1.20000000      -0.00000187       0.00000577      -0.00000194
O       10.72202081       6.05153513       9.34394697      -1.20000000       0.00000577      -0.00000194      -0.00000187
O        8.11924188       1.11924188       8.11924188      -1.20000000      -0.00000512      -0.00000512      -0.00000512
O        9.38075812       5.88075812      11.61924188      -1.20000000       0.00000512       0.00000512      -0.00000512
O       11.61924188       2.38075812      12.88075812      -1.20000000      -0.00000512       0.00000512       0.00000512
O       12.88075812       4.61924188       9.38075812      -1.20000000       0.00000512      -0.00000512       0.00000512
O       11.44846487       4.65605303       7.22202081      -1.20000000       0.00000194       0.00000187       0.00000577
O        7.22202081       4.44846487      11.65605303      -1.20000000       0.00000577       0.00000194       0.00000187
O       11.65605303       0.22202081      11.44846487      -1.20000000       0.00000187       0.00000577       0.00000194
O       12.84394697       6.77797919       7.94846487      -1.20000000      -0.00000187      -0.00000577       0.00000194
Si       6.79814436      10.70185564      10.29814436       2.40000000       0.00000147      -0.00000147       0.00000147
Si       3.70185564      10.29814436      13.79814436       2.40000000      -0.00000147       0.00000147       0.00000147
Si       3.29814436      13.79814436      10.70185564       2.40000000       0.00000147       0.00000147      -0.00000147
Si       0.20185564       7.20185564       7.20185564       2.40000000      -0.00000147      -0.00000147      -0.00000147
Si       4.95170694      12.54829306       8.45170694       2.40000000       0.00000362      -0.00000362       0.00000362
Si       5.54829306       8.45170694      11.95170694       2.40000000      -0.00000362       0.00000362       0.00000362
Si       1.45170694      11.95170694      12.54829306       2.40000000       0.00000362       0.00000362      -0.00000362
Si       2.04829306       9.04829306       9.04829306       2.40000000      -0.00000362      -0.00000362      -0.00000362
O        6.05153513       9.34394697      10.72202081      -1.20000000      -0.00000194      -0.00000187       0.00000577
O        2.55153513       8.15605303      10.27797919      -1.20000000      -0.00000194       0.00000187      -0.00000577
O        0.94846487      12.84394697      13.77797919      -1.20000000       0.00000194      -0.00000187      -0.00000577
O        1.15605303      10.27797919       9.55153513      -1.20000000       0.00000187      -0.00000577      -0.00000194
O        6.77797919       7.94846487      12.84394697      -1.20000000      -0.00000577       0.00000194      -0.00000187
O        3.27797919       9.55153513       8.15605303      -1.20000000      -0.00000577      -0.00000194       0.00000187
O        2.34394697      10.72202081      13.05153513      -1.20000000      -0.00000187       0.00000577      -0.00000194
O        3.72202081      13.05153513       9.34394697      -1.20000000       0.00000577      -0.00000194      -0.00000187
O        1.11924188       8.11924188       8.11924188      -1.20000000      -0.00000512      -0.00000512      -0.00000512
O        2.38075812      12.88075812      11.61924188      -1.20000000       0.00000512       0.00000512      -0.00000512
O        4.61924188       9.38075812      12.88075812      -1.20000000      -0.00000512       0.00000512       0.00000512
O        5.88075812      11.61924188       9.38075812      -1.20000000       0.00000512      -0.00000512       0.00000512
O        4.44846487      11.65605303       7.22202081      -1.20000000       0.00000194       0.00000187       0.00000577
O        0.22202081      11.44846487      11.65605303      -1.20000000       0.00000577       0.00000194       0.00000187
O        4.65605303       7.22202081      11.44846487      -1.20000000       0.00000187       0.00000577       0.00000194
O        5.84394697      13.77797919       7.94846487      -1.20000000      -0.00000187      -0.00000577       0.00000194
Si      13.79814436      10.70185564      10.29814436       2.40000000       0.00000147      -0.00000147       0.00000147
Si      10.70185564      10.29814436      13.79814436       2.40000000      -0.00000147       0.00000147       0.00000147
Si      10.29814436      13.79814436      10.70185564       2.40000000       0.00000147       0.00000147      -0.00000147
Si       7.20185564       7.20185564       7.20185564       2.40000000      -0.00000147      -0.00000147      -0.00000147
Si      11.95170694      12.54829306       8.45170694       2.40000000       0.00000362      -0.00000362       0.00000362
Si      12.54829306       8.45170694      11.95170694       2.40000000      -0.00000362       0.00000362       0.00000362
Si       8.45170694      11.95170694      12.54829306       2.40000000       0.00000362       0.00000362      -0.00000362
Si       9.04829306       9.04829306       9.04829306       2.40000000      -0.00000362      -0.00000362      -0.00000362
O       13.05153513       9.34394697      10.72202081      -1.20000000      -0.00000194      -0.00000187       0.00000577
O        9.55153513       8.15605303      10.27797919      -1.20000000      -0.00000194       0.00000187      -0.00000577
O        7.94846487      12.84394697      13.77797919      -1.20000000       0.00000194      -0.00000187      -0.00000577
O        8.15605303      10.27797919       9.55153513      -1.20000000       0.00000187      -0.00000577      -0.00000194
O       13.77797919       7.94846487      12.84394697      -1.20000000      -0.00000577       0.00000194      -0.00000187
O       10.27797919       9.55153513       8.15605303      -1.20000000      -0.00000577      -0.00000194       0.00000187
O        9.34394697      10.72202081      13.05153513      -1.20000000      -0.00000187       0.00000577      -0.00000194
O       10.72202081      13.05153513       9.34394697      -1.20000000       0.00000577      -0.00000194      -0.00000187
O        8.11924188       8.11924188       8.11924188      -1.20000000      -0.00000512      -0.00000512      -0.00000512
O        9.38075812      12.88075812      11.61924188      -1.20000000       0.00000512       0.00000512      -0.00000512
O       11.61924188       9.38075812      12.88075812      -1.20000000      -0.00000512       0.00000512       0.00000512
O       12.88075812      11.61924188       9.38075812      -1.20000000       0.00000512      -0.00000512       0.00000512
O       11.44846487      11.65605303       7.22202081      -1.20000000       0.00000194       0.00000187       0.00000577
O        7.22202081      11.44846487      11.65605303      -1.20000000       0.00000577       0.00000194       0.00000187
O       11.65605303       7.22202081      11.44846487      -1.20000000       0.00000187       0.00000577       0.00000194
O       12.84394697      13.77797919       7.94846487      -1.20000000      -0.00000187      -0.00000577       0.00000194
