112
Lattice="5.43 0.0 0.0 0.0 5.43 0.0 0.0 0.0 76.046716794234" Properties=species:S:1:pos:R:3:forces:R:3 energy=-480.682031613312 free_energy=-480.682031613312 pbc="T T T"
Si       1.35750000       4.07250000       4.07393126       0.00000000       0.00000000      -0.00000201
Si       0.00000000       2.71500000       2.71595417       0.00000000       0.00000000      -0.00000247
Si       1.35750000       1.35750000       1.35797709       0.09110980      -0.09110980       0.00000329
Si       4.07250000       1.35750000       4.07393126      -0.00000000      -0.00000000      -0.00000201
Si       4.07250000       4.07250000       1.35797709       0.09110980      -0.09110980       0.00000329
Si       2.71500000       2.71500000      -0.00000000      -0.19721331       0.19721331      -0.00000346
Si       2.71500000       0.00000000       2.71595417      -0.00000000      -0.00000000      -0.00000247
Si       0.00000000       0.00000000      -0.00000000      -0.19721331       0.19721331      -0.00000346
Si       1.35750000       4.07250000       9.50583960      -0.00000000       0.00000000       0.00000115
Si       0.00000000       2.71500000       8.14786251      -0.00000000      -0.00000000       0.00000099
Si       1.35750000       1.35750000       6.78988543      -0.00000000       0.00000000       0.00000035
Si       4.07250000       1.35750000       9.50583960       0.00000000      -0.00000000       0.00000115
Si       4.07250000       4.07250000       6.78988543       0.00000000      -0.00000000       0.00000035
Si       2.71500000       2.71500000       5.43190834       0.00000000      -0.00000000      -0.00000094
Si       2.71500000       0.00000000       8.14786251       0.00000000       0.00000000       0.00000099
Si       0.00000000       0.00000000       5.43190834      -0.00000000       0.00000000      -0.00000094
Si       1.35750000       4.07250000      14.93774794       0.00000000      -0.00000000      -0.00000209
Si       0.00000000       2.71500000      13.57977086       0.00000000       0.00000000       0.00000112
Si       1.35750000       1.35750000      12.22179377       0.00000000       0.00000000       0.00000026
Si       4.07250000       1.35750000      14.93774794       0.00000000      -0.00000000      -0.00000209
Si       4.07250000       4.07250000      12.22179377      -0.00000000      -0.00000000       0.00000026
Si       2.71500000       2.71500000      10.86381668      -0.00000000       0.00000000       0.00000123
Si       2.71500000       0.00000000      13.57977086      -0.00000000      -0.00000000       0.00000112
Si       0.00000000       0.00000000      10.86381668      -0.00000000       0.00000000       0.00000123
Si       1.35750000       4.07250000      20.36965628       0.00000000      -0.00000000       0.00000345
Si       0.00000000       2.71500000      19.01167920      -0.00000000       0.00000000      -0.00000182
Si       1.35750000       1.35750000      17.65370211       0.00000000       0.00000000       0.00000006
Si       4.07250000       1.35750000      20.36965628      -0.00000000      -0.00000000       0.00000345
Si       4.07250000       4.07250000      17.65370211       0.00000000       0.00000000       0.00000006
Si       2.71500000       2.71500000      16.29572503       0.00000000       0.00000000      -0.00000023
Si       2.71500000       0.00000000      19.01167920       0.00000000       0.00000000      -0.00000182
Si       0.00000000       0.00000000      16.29572503       0.00000000       0.00000000      -0.00000023
Si       1.35750000       4.07250000      25.80156463       0.00000000      -0.00000000      -0.00000214
Si       0.00000000       2.71500000      24.44358754      -0.00000000      -0.00000000      -0.00000099
Si       1.35750000       1.35750000      23.08561046      -0.00000000       0.00000000       0.00000105
Si       4.07250000       1.35750000      25.80156463      -0.00000000      -0.00000000      -0.00000214
Si       4.07250000       4.07250000      23.08561046       0.00000000      -0.00000000       0.00000105
Si       2.71500000       2.71500000      21.72763337       0.00000000       0.00000000      -0.00000184
Si       2.71500000       0.00000000      24.44358754       0.00000000      -0.00000000      -0.00000099
Si       0.00000000       0.00000000      21.72763337      -0.00000000      -0.00000000      -0.00000184
Si       1.35750000       4.07250000      31.23347297       0.00000000       0.00000000       0.00000143
Si       0.00000000       2.71500000      29.87549588      -0.00000000       0.00000000       0.00000308
Si       1.35750000       1.35750000      28.51751880      -0.00000000      -0.00000000      -0.00000024
Si       4.07250000       1.35750000      31.23347297       0.00000000       0.00000000       0.00000143
Si       4.07250000       4.07250000      28.51751880      -0.00000000       0.00000000      -0.00000024
Si       2.71500000       2.71500000      27.15954171       0.00000000      -0.00000000      -0.00000006
Si       2.71500000       0.00000000      29.87549588      -0.00000000       0.00000000       0.00000308
Si       0.00000000       0.00000000      27.15954171       0.00000000       0.00000000      -0.00000006
Si       1.35750000       4.07250000      36.66538131       0.00000000       0.00000000      -0.00000646
Si       0.00000000       2.71500000      35.30740423       0.00000000      -0.00000000       0.00000873
Si       1.35750000       1.35750000      33.94942714      -0.00000000       0.00000000      -0.00000949
Si       4.07250000       1.35750000      36.66538131      -0.00000000      -0.00000000      -0.00000646
Si       4.07250000       4.07250000      33.94942714       0.00000000      -0.00000000      -0.00000949
Si       2.71500000       2.71500000      32.59145005      -0.00000000      -0.00000000       0.00000161
Si       2.71500000       0.00000000      35.30740423      -0.00000000       0.00000000       0.00000873
Si       0.00000000       0.00000000      32.59145005       0.00000000      -0.00000000       0.00000161
Si       1.35750000       4.07250000      42.09728965      -0.00000000      -0.00000000      -0.00000165
Si       0.00000000       2.71500000      40.73931257      -0.00000000      -0.00000000       0.00000952
Si       1.35750000       1.35750000      39.38133548      -0.00000000      -0.00000000      -0.00000875
Si       4.07250000       1.35750000      42.09728965       0.00000000      -0.00000000      -0.00000165
Si       4.07250000       4.07250000      39.38133548      -0.00000000      -0.00000000      -0.00000875
Si       2.71500000       2.71500000      38.02335840       0.00000000       0.00000000       0.00000647
Si       2.71500000       0.00000000      40.73931257      -0.00000000       0.00000000       0.00000952
Si       0.00000000       0.00000000      38.02335840      -0.00000000       0.00000000       0.00000647
Si       1.35750000       4.07250000      47.52919800       0.00000000       0.00000000       0.00000004
Si       0.00000000       2.71500000      46.17122091      -0.00000000      -0.00000000       0.00000026
Si       1.35750000       1.35750000      44.81324383      -0.00000000       0.00000000      -0.00000310
Si       4.07250000       1.35750000      47.52919800      -0.00000000       0.00000000       0.00000004
Si       4.07250000       4.07250000      44.81324383      -0.00000000      -0.00000000      -0.00000310
Si       2.71500000       2.71500000      43.45526674       0.00000000      -0.00000000      -0.00000141
Si       2.71500000       0.00000000      46.17122091       0.00000000      -0.00000000       0.00000026
Si       0.00000000       0.00000000      43.45526674       0.00000000       0.00000000      -0.00000141
Si       1.35750000       4.07250000      52.96110634       0.00000000       0.00000000       0.00000183
Si       0.00000000       2.71500000      51.60312925      -0.00000000       0.00000000      -0.00000103
Si       1.35750000       1.35750000      50.24515217      -0.00000000      -0.00000000       0.00000097
Si       4.07250000       1.35750000      52.96110634      -0.00000000      -0.00000000       0.00000183
Si       4.07250000       4.07250000      50.24515217       0.00000000       0.00000000       0.00000097
Si       2.71500000       2.71500000      48.88717508       0.00000000      -0.00000000       0.00000216
Si       2.71500000       0.00000000      51.60312925       0.00000000       0.00000000      -0.00000103
Si       0.00000000       0.00000000      48.88717508       0.00000000       0.00000000       0.00000216
Si       1.35750000       4.07250000      58.39301468       0.00000000       0.00000000       0.00000019
Si       0.00000000       2.71500000      57.03503760      -0.00000000       0.00000000      -0.00000003
Si       1.35750000       1.35750000      55.67706051       0.00000000       0.00000000       0.00000180
Si       4.07250000       1.35750000      58.39301468       0.00000000       0.00000000       0.00000019
Si       4.07250000       4.07250000      55.67706051      -0.00000000       0.00000000       0.00000180
Si       2.71500000       2.71500000      54.31908342      -0.00000000      -0.00000000      -0.00000343
Si       2.71500000       0.00000000      57.03503760      -0.00000000       0.00000000      -0.00000003
Si       0.00000000       0.00000000      54.31908342       0.00000000       0.00000000      -0.00000343
Si       1.35750000       4.07250000      63.82492302       0.00000000      -0.00000000      -0.00000125
Si       0.00000000       2.71500000      62.46694594       0.00000000      -0.00000000      -0.00000023
Si       1.35750000       1.35750000      61.10896885      -0.00000000      -0.00000000      -0.00000116
Si       4.07250000       1.35750000      63.82492302      -0.00000000       0.00000000      -0.00000125
Si       4.07250000       4.07250000      61.10896885       0.00000000      -0.00000000      -0.00000116
Si       2.71500000       2.71500000      59.75099177      -0.00000000       0.00000000       0.00000214
Si       2.71500000       0.00000000      62.46694594      -0.00000000       0.00000000      -0.00000023
Si       0.00000000       0.00000000      59.75099177       0.00000000       0.00000000       0.00000214
Si       1.35750000       4.07250000      69.25683137       0.00000000      -0.00000000       0.00000093
Si       0.00000000       2.71500000      67.89885428       0.00000000      -0.00000000      -0.00000034
Si       1.35750000       1.35750000      66.54087719       0.00000000       0.00000000      -0.00000100
Si       4.07250000       1.35750000      69.25683137      -0.00000000      -0.00000000       0.00000093
Si       4.07250000       4.07250000      66.54087719      -0.00000000       0.00000000      -0.00000100
Si       2.71500000       2.71500000      65.18290011      -0.00000000       0.00000000      -0.00000113
Si       2.71500000       0.00000000      67.89885428       0.00000000       0.00000000      -0.00000034
Si       0.00000000       0.00000000      65.18290011      -0.00000000      -0.00000000      -0.00000113
Si       1.35750000       4.07250000      74.68873971       0.19721331      -0.19721331       0.00000346
Si       0.00000000       2.71500000      73.33076262      -0.09110980       0.09110980      -0.00000330
Si       1.35750000       1.35750000      71.97278554       0.00000000      -0.00000000       0.00000247
Si       4.07250000       1.35750000      74.68873971       0.19721331      -0.19721331       0.00000346
Si       4.07250000       4.07250000      71.97278554      -0.00000000       0.00000000       0.00000247
Si       2.71500000       2.71500000      70.61480845      -0.00000000       0.00000000       0.00000201
Si       2.71500000       0.00000000      73.33076262      -0.09110980       0.09110980      -0.00000330
Si       0.00000000       0.00000000      70.61480845      -0.00000000      -0.00000000       0.00000201
112
Lattice="5.43 0.0 0.0 0.0 5.43 0.0 -0.45249999999999996 0.45249999999999996 76.45542049479319" Properties=species:S:1:pos:R:3:forces:R:3 energy=-480.682031613312 free_energy=-480.682031613312 pbc="T T T"
Si       1.35750000       4.07250000       4.27464596       0.00000000       0.00000000      -0.00000201
Si       0.00000000       2.71500000       2.91668331       0.00000000       0.00000000      -0.00000247
Si       1.35750000       1.35750000       1.55822207       0.09110980      -0.09110980       0.00000329
Si       4.07250000       1.35750000       4.27464596      -0.00000000      -0.00000000      -0.00000201
Si       4.07250000       4.07250000       1.55822207       0.09110980      -0.09110980       0.00000329
Si       2.71500000       2.71500000       0.21661910      -0.19721331       0.19721331      -0.00000346
Si       2.71500000       0.00000000       2.91668331      -0.00000000      -0.00000000      -0.00000247
Si       0.00000000       0.00000000       0.21661910      -0.19721331       0.19721331      -0.00000346
Si       1.35750000       4.07250000       9.70655521      -0.00000000       0.00000000       0.00000115
Si       0.00000000       2.71500000       8.34857821      -0.00000000      -0.00000000       0.00000099
Si       1.35750000       1.35750000       6.99060116      -0.00000000       0.00000000       0.00000035
Si       4.07250000       1.35750000       9.70655521       0.00000000      -0.00000000       0.00000115
Si       4.07250000       4.07250000       6.99060116       0.00000000      -0.00000000       0.00000035
Si       2.71500000       2.71500000       5.63262370       0.00000000      -0.00000000      -0.00000094
Si       2.71500000       0.00000000       8.34857821       0.00000000       0.00000000       0.00000099
Si       0.00000000       0.00000000       5.63262370      -0.00000000       0.00000000      -0.00000094
Si       1.35750000       4.07250000      15.13846247       0.00000000      -0.00000000      -0.00000209
Si       0.00000000       2.71500000      13.78048569       0.00000000       0.00000000       0.00000112
Si       1.35750000       1.35750000      12.42250903       0.00000000       0.00000000       0.00000026
Si       4.07250000       1.35750000      15.13846247       0.00000000      -0.00000000      -0.00000209
Si       4.07250000       4.07250000      12.42250903      -0.00000000      -0.00000000       0.00000026
Si       2.71500000       2.71500000      11.06453223      -0.00000000       0.00000000       0.00000123
Si       2.71500000       0.00000000      13.78048569      -0.00000000      -0.00000000       0.00000112
Si       0.00000000       0.00000000      11.06453223      -0.00000000       0.00000000       0.00000123
Si       1.35750000       4.07250000      20.57036875       0.00000000      -0.00000000       0.00000345
Si       0.00000000       2.71500000      19.21239189      -0.00000000       0.00000000      -0.00000182
Si       1.35750000       1.35750000      17.85441565       0.00000000       0.00000000       0.00000006
Si       4.07250000       1.35750000      20.57036875      -0.00000000      -0.00000000       0.00000345
Si       4.07250000       4.07250000      17.85441565       0.00000000       0.00000000       0.00000006
Si       2.71500000       2.71500000      16.49643886       0.00000000       0.00000000      -0.00000023
Si       2.71500000       0.00000000      19.21239189       0.00000000       0.00000000      -0.00000182
Si       0.00000000       0.00000000      16.49643886       0.00000000       0.00000000      -0.00000023
Si       1.35750000       4.07250000      26.00227515       0.00000000      -0.00000000      -0.00000214
Si       0.00000000       2.71500000      24.64429917      -0.00000000      -0.00000000      -0.00000099
Si       1.35750000       1.35750000      23.28632262      -0.00000000       0.00000000       0.00000105
Si       4.07250000       1.35750000      26.00227515      -0.00000000      -0.00000000      -0.00000214
Si       4.07250000       4.07250000      23.28632262       0.00000000      -0.00000000       0.00000105
Si       2.71500000       2.71500000      21.92834551       0.00000000       0.00000000      -0.00000184
Si       2.71500000       0.00000000      24.64429917       0.00000000      -0.00000000      -0.00000099
Si       0.00000000       0.00000000      21.92834551      -0.00000000      -0.00000000      -0.00000184
Si       1.35750000       4.07250000      31.43417948       0.00000000       0.00000000       0.00000143
Si       0.00000000       2.71500000      30.07620273      -0.00000000       0.00000000       0.00000308
Si       1.35750000       1.35750000      28.71822622      -0.00000000      -0.00000000      -0.00000024
Si       4.07250000       1.35750000      31.43417948       0.00000000       0.00000000       0.00000143
Si       4.07250000       4.07250000      28.71822622      -0.00000000       0.00000000      -0.00000024
Si       2.71500000       2.71500000      27.36025066       0.00000000      -0.00000000      -0.00000006
Si       2.71500000       0.00000000      30.07620273      -0.00000000       0.00000000       0.00000308
Si       0.00000000       0.00000000      27.36025066       0.00000000       0.00000000      -0.00000006
Si       1.35750000       4.07250000      36.86608468       0.00000000       0.00000000      -0.00000646
Si       0.00000000       2.71500000      35.50810774       0.00000000      -0.00000000       0.00000873
Si       1.35750000       1.35750000      34.15013240      -0.00000000       0.00000000      -0.00000949
Si       4.07250000       1.35750000      36.86608468      -0.00000000      -0.00000000      -0.00000646
Si       4.07250000       4.07250000      34.15013240       0.00000000      -0.00000000      -0.00000949
Si       2.71500000       2.71500000      32.79215654      -0.00000000      -0.00000000       0.00000161
Si       2.71500000       0.00000000      35.50810774      -0.00000000       0.00000000       0.00000873
Si       0.00000000       0.00000000      32.79215654       0.00000000      -0.00000000       0.00000161
Si       1.35750000       4.07250000      42.29798859      -0.00000000      -0.00000000      -0.00000165
Si       0.00000000       2.71500000      40.94001273      -0.00000000      -0.00000000       0.00000952
Si       1.35750000       1.35750000      39.58203739      -0.00000000      -0.00000000      -0.00000875
Si       4.07250000       1.35750000      42.29798859       0.00000000      -0.00000000      -0.00000165
Si       4.07250000       4.07250000      39.58203739      -0.00000000      -0.00000000      -0.00000875
Si       2.71500000       2.71500000      38.22406045       0.00000000       0.00000000       0.00000647
Si       2.71500000       0.00000000      40.94001273      -0.00000000       0.00000000       0.00000952
Si       0.00000000       0.00000000      38.22406045      -0.00000000       0.00000000       0.00000647
Si       1.35750000       4.07250000      47.72989447       0.00000000       0.00000000       0.00000004
Si       0.00000000       2.71500000      46.37191891      -0.00000000      -0.00000000       0.00000026
Si       1.35750000       1.35750000      45.01394239      -0.00000000       0.00000000      -0.00000310
Si       4.07250000       1.35750000      47.72989447      -0.00000000       0.00000000       0.00000004
Si       4.07250000       4.07250000      45.01394239      -0.00000000      -0.00000000      -0.00000310
Si       2.71500000       2.71500000      43.65596565       0.00000000      -0.00000000      -0.00000141
Si       2.71500000       0.00000000      46.37191891       0.00000000      -0.00000000       0.00000026
Si       0.00000000       0.00000000      43.65596565       0.00000000       0.00000000      -0.00000141
Si       1.35750000       4.07250000      53.16179962       0.00000000       0.00000000       0.00000183
Si       0.00000000       2.71500000      51.80382251      -0.00000000       0.00000000      -0.00000103
Si       1.35750000       1.35750000      50.44584596      -0.00000000      -0.00000000       0.00000097
Si       4.07250000       1.35750000      53.16179962      -0.00000000      -0.00000000       0.00000183
Si       4.07250000       4.07250000      50.44584596       0.00000000       0.00000000       0.00000097
Si       2.71500000       2.71500000      49.08786998       0.00000000      -0.00000000       0.00000216
Si       2.71500000       0.00000000      51.80382251       0.00000000       0.00000000      -0.00000103
Si       0.00000000       0.00000000      49.08786998       0.00000000       0.00000000       0.00000216
Si       1.35750000       4.07250000      58.59370627       0.00000000       0.00000000       0.00000019
Si       0.00000000       2.71500000      57.23572947      -0.00000000       0.00000000      -0.00000003
Si       1.35750000       1.35750000      55.87775324       0.00000000       0.00000000       0.00000180
Si       4.07250000       1.35750000      58.59370627       0.00000000       0.00000000       0.00000019
Si       4.07250000       4.07250000      55.87775324      -0.00000000       0.00000000       0.00000180
Si       2.71500000       2.71500000      54.51977638      -0.00000000      -0.00000000      -0.00000343
Si       2.71500000       0.00000000      57.23572947      -0.00000000       0.00000000      -0.00000003
Si       0.00000000       0.00000000      54.51977638       0.00000000       0.00000000      -0.00000343
Si       1.35750000       4.07250000      64.02561290       0.00000000      -0.00000000      -0.00000125
Si       0.00000000       2.71500000      62.66763610       0.00000000      -0.00000000      -0.00000023
Si       1.35750000       1.35750000      61.30965943      -0.00000000      -0.00000000      -0.00000116
Si       4.07250000       1.35750000      64.02561290      -0.00000000       0.00000000      -0.00000125
Si       4.07250000       4.07250000      61.30965943       0.00000000      -0.00000000      -0.00000116
Si       2.71500000       2.71500000      59.95168265      -0.00000000       0.00000000       0.00000214
Si       2.71500000       0.00000000      62.66763610      -0.00000000       0.00000000      -0.00000023
Si       0.00000000       0.00000000      59.95168265       0.00000000       0.00000000       0.00000214
Si       1.35750000       4.07250000      69.45752143       0.00000000      -0.00000000       0.00000093
Si       0.00000000       2.71500000      68.09954396       0.00000000      -0.00000000      -0.00000034
Si       1.35750000       1.35750000      66.74156692       0.00000000       0.00000000      -0.00000100
Si       4.07250000       1.35750000      69.45752143      -0.00000000      -0.00000000       0.00000093
Si       4.07250000       4.07250000      66.74156692      -0.00000000       0.00000000      -0.00000100
Si       2.71500000       2.71500000      65.38358992      -0.00000000       0.00000000      -0.00000113
Si       2.71500000       0.00000000      68.09954396       0.00000000       0.00000000      -0.00000034
Si       0.00000000       0.00000000      65.38358992      -0.00000000      -0.00000000      -0.00000113
Si       1.35750000       4.07250000      74.87352602       0.19721331      -0.19721331       0.00000346
Si       0.00000000       2.71500000      73.53192305      -0.09110980       0.09110980      -0.00000330
Si       1.35750000       1.35750000      72.17346182       0.00000000      -0.00000000       0.00000247
Si       4.07250000       1.35750000      74.87352602       0.19721331      -0.19721331       0.00000346
Si       4.07250000       4.07250000      72.17346182      -0.00000000       0.00000000       0.00000247
Si       2.71500000       2.71500000      70.81549916      -0.00000000       0.00000000       0.00000201
Si       2.71500000       0.00000000      73.53192305      -0.09110980       0.09110980      -0.00000330
Si       0.00000000       0.00000000      70.81549916      -0.00000000      -0.00000000       0.00000201
112
Lattice="5.43 0.0 0.0 0.0 5.43 0.0 -0.9049999999999999 0.9049999999999999 76.93422545635231" Properties=species:S:1:pos:R:3:forces:R:3 energy=-480.682031613312 free_energy=-480.682031613312 pbc="T T T"
Si       1.35750000       4.07250000       4.50976038       0.00000000       0.00000000      -0.00000201
Si       0.00000000       2.71500000       3.15180374       0.00000000       0.00000000      -0.00000247
Si       1.35750000       1.35750000       1.79312153       0.09110980      -0.09110980       0.00000329
Si       4.07250000       1.35750000       4.50976038      -0.00000000      -0.00000000      -0.00000201
Si       4.07250000       4.07250000       1.79312153       0.09110980      -0.09110980       0.00000329
Si       2.71500000       2.71500000       0.45882499      -0.19721331       0.19721331      -0.00000346
Si       2.71500000       0.00000000       3.15180374      -0.00000000      -0.00000000      -0.00000247
Si       0.00000000       0.00000000       0.45882499      -0.19721331       0.19721331      -0.00000346
Si       1.35750000       4.07250000       9.94166869      -0.00000000       0.00000000       0.00000115
Si       0.00000000       2.71500000       8.58369169      -0.00000000      -0.00000000       0.00000099
Si       1.35750000       1.35750000       7.22571479      -0.00000000       0.00000000       0.00000035
Si       4.07250000       1.35750000       9.94166869       0.00000000      -0.00000000       0.00000115
Si       4.07250000       4.07250000       7.22571479       0.00000000      -0.00000000       0.00000035
Si       2.71500000       2.71500000       5.86773794       0.00000000      -0.00000000      -0.00000094
Si       2.71500000       0.00000000       8.58369169       0.00000000       0.00000000       0.00000099
Si       0.00000000       0.00000000       5.86773794      -0.00000000       0.00000000      -0.00000094
Si       1.35750000       4.07250000      15.37357767       0.00000000      -0.00000000      -0.00000209
Si       0.00000000       2.71500000      14.01560029       0.00000000       0.00000000       0.00000112
Si       1.35750000       1.35750000      12.65762304       0.00000000       0.00000000       0.00000026
Si       4.07250000       1.35750000      15.37357767       0.00000000      -0.00000000      -0.00000209
Si       4.07250000       4.07250000      12.65762304      -0.00000000      -0.00000000       0.00000026
Si       2.71500000       2.71500000      11.29964580      -0.00000000       0.00000000       0.00000123
Si       2.71500000       0.00000000      14.01560029      -0.00000000      -0.00000000       0.00000112
Si       0.00000000       0.00000000      11.29964580      -0.00000000       0.00000000       0.00000123
Si       1.35750000       4.07250000      20.80548608       0.00000000      -0.00000000       0.00000345
Si       0.00000000       2.71500000      19.44750912      -0.00000000       0.00000000      -0.00000182
Si       1.35750000       1.35750000      18.08953197       0.00000000       0.00000000       0.00000006
Si       4.07250000       1.35750000      20.80548608      -0.00000000      -0.00000000       0.00000345
Si       4.07250000       4.07250000      18.08953197       0.00000000       0.00000000       0.00000006
Si       2.71500000       2.71500000      16.73155483       0.00000000       0.00000000      -0.00000023
Si       2.71500000       0.00000000      19.44750912       0.00000000       0.00000000      -0.00000182
Si       0.00000000       0.00000000      16.73155483       0.00000000       0.00000000      -0.00000023
Si       1.35750000       4.07250000      26.23739488       0.00000000      -0.00000000      -0.00000214
Si       0.00000000       2.71500000      24.87941775      -0.00000000      -0.00000000      -0.00000099
Si       1.35750000       1.35750000      23.52144051      -0.00000000       0.00000000       0.00000105
Si       4.07250000       1.35750000      26.23739488      -0.00000000      -0.00000000      -0.00000214
Si       4.07250000       4.07250000      23.52144051       0.00000000      -0.00000000       0.00000105
Si       2.71500000       2.71500000      22.16346340       0.00000000       0.00000000      -0.00000184
Si       2.71500000       0.00000000      24.87941775       0.00000000      -0.00000000      -0.00000099
Si       0.00000000       0.00000000      22.16346340      -0.00000000      -0.00000000      -0.00000184
Si       1.35750000       4.07250000      31.66930280       0.00000000       0.00000000       0.00000143
Si       0.00000000       2.71500000      30.31132560      -0.00000000       0.00000000       0.00000308
Si       1.35750000       1.35750000      28.95334872      -0.00000000      -0.00000000      -0.00000024
Si       4.07250000       1.35750000      31.66930280       0.00000000       0.00000000       0.00000143
Si       4.07250000       4.07250000      28.95334872      -0.00000000       0.00000000      -0.00000024
Si       2.71500000       2.71500000      27.59537180       0.00000000      -0.00000000      -0.00000006
Si       2.71500000       0.00000000      30.31132560      -0.00000000       0.00000000       0.00000308
Si       0.00000000       0.00000000      27.59537180       0.00000000       0.00000000      -0.00000006
Si       1.35750000       4.07250000      37.10121163       0.00000000       0.00000000      -0.00000646
Si       0.00000000       2.71500000      35.74323416       0.00000000      -0.00000000       0.00000873
Si       1.35750000       1.35750000      34.38525765      -0.00000000       0.00000000      -0.00000949
Si       4.07250000       1.35750000      37.10121163      -0.00000000      -0.00000000      -0.00000646
Si       4.07250000       4.07250000      34.38525765       0.00000000      -0.00000000      -0.00000949
Si       2.71500000       2.71500000      33.02728013      -0.00000000      -0.00000000       0.00000161
Si       2.71500000       0.00000000      35.74323416      -0.00000000       0.00000000       0.00000873
Si       0.00000000       0.00000000      33.02728013       0.00000000      -0.00000000       0.00000161