160
Lattice="5.43 0.0 0.0 0.0 7.679179643685906 0.0 0.0 0.0 76.81006685289691" Properties=species:S:1:pos:R:3:forces:R:3 energy=-692.6185559406855 free_energy=-692.6185559406855 pbc="T T T"
Si       0.00000000       0.00000000       3.84050334      -0.00320171      -0.00000000       0.00000484
Si       1.35750000       1.91979491       3.84050334       0.00320159       0.00000000       0.00000470
Si       4.07250000       0.00000000       1.92025167       0.02865460      -0.00617329      -0.00000532
Si       4.07250000       0.00000000       5.76075501       0.00372449       0.00000000       0.00000050
Si       2.71500000       1.91979491       5.76075501      -0.00372466      -0.00000000       0.00000130
Si       4.07250000       3.83958982       5.76075501       0.00372449      -0.00000000       0.00000048
Si       0.00000000       0.00000000       0.00000000      -0.32762485       0.70341176      -0.00000116
Si       1.35750000       1.91979491       0.00000000       0.32762484       0.70341178      -0.00000078
Si       0.00000000       3.83958982       0.00000000      -0.32762485       0.70341176      -0.00000115
Si       1.35750000       5.75938473       0.00000000       0.32762484       0.70341177      -0.00000075
Si       2.71500000       1.91979491       1.92025167      -0.02865466      -0.00617329      -0.00000558
Si       4.07250000       3.83958982       1.92025167       0.02865460      -0.00617329      -0.00000533
Si       0.00000000       3.83958982       3.84050334      -0.00320171       0.00000000       0.00000486
Si       1.35750000       5.75938473       3.84050334       0.00320159      -0.00000000       0.00000476
Si       2.71500000       5.75938473       1.92025167      -0.02865465      -0.00617329      -0.00000563
Si       2.71500000       5.75938473       5.76075501      -0.00372465       0.00000000       0.00000123
Si       0.00000000       0.00000000      11.52151003      -0.00370222       0.00000000       0.00000749
Si       1.35750000       1.91979491      11.52151003       0.00370220      -0.00000000       0.00000485
Si       4.07250000       0.00000000       9.60125836       0.00370014      -0.00000000      -0.00000352
Si       4.07250000       0.00000000      13.44176170       0.00371499      -0.00000000       0.00001468
Si       2.71500000       1.91979491      13.44176170      -0.00371484       0.00000000       0.00001705
Si       4.07250000       3.83958982      13.44176170       0.00371500       0.00000000       0.00001465
Si       0.00000000       0.00000000       7.68100669      -0.00370839      -0.00000000      -0.00001085
Si       1.35750000       1.91979491       7.68100669       0.00370822       0.00000000      -0.00001243
Si       0.00000000       3.83958982       7.68100669      -0.00370839       0.00000000      -0.00001082
Si       1.35750000       5.75938473       7.68100669       0.00370822      -0.00000000      -0.00001236
Si       2.71500000       1.91979491       9.60125836      -0.00370026      -0.00000000      -0.00000124
Si       4.07250000       3.83958982       9.60125836       0.00370014       0.00000000      -0.00000356
Si       0.00000000       3.83958982      11.52151003      -0.00370222      -0.00000000       0.00000752
Si       1.35750000       5.75938473      11.52151003       0.00370220       0.00000000       0.00000491
Si       2.71500000       5.75938473       9.60125836      -0.00370027       0.00000000      -0.00000131
Si       2.71500000       5.75938473      13.44176170      -0.00371484      -0.00000000       0.00001700
Si       0.00000000       0.00000000      19.20251671      -0.00370296       0.00000000      -0.00001655
Si       1.35750000       1.91979491      19.20251671       0.00370405      -0.00000000      -0.00001135
Si       4.07250000       0.00000000      17.28226504       0.00371829      -0.00000000      -0.00001053
Si       4.07250000       0.00000000      21.12276838       0.00369721      -0.00000000       0.00000705
Si       2.71500000       1.91979491      21.12276838      -0.00369566       0.00000000      -0.00000404
Si       4.07250000       3.83958982      21.12276838       0.00369723       0.00000000       0.00000719
Si       0.00000000       0.00000000      15.36201337      -0.00372410       0.00000000       0.00000077
Si       1.35750000       1.91979491      15.36201337       0.00372449      -0.00000000      -0.00000042
Si       0.00000000       3.83958982      15.36201337      -0.00372409      -0.00000000       0.00000078
Si       1.35750000       5.75938473      15.36201337       0.00372448       0.00000000      -0.00000039
Si       2.71500000       1.91979491      17.28226504      -0.00371759       0.00000000      -0.00001174
Si       4.07250000       3.83958982      17.28226504       0.00371830       0.00000000      -0.00001050
Si       0.00000000       3.83958982      19.20251671      -0.00370294      -0.00000000      -0.00001662
Si       1.35750000       5.75938473      19.20251671       0.00370404       0.00000000      -0.00001136
Si       2.71500000       5.75938473      17.28226504      -0.00371760      -0.00000000      -0.00001176
Si       2.71500000       5.75938473      21.12276838      -0.00369568      -0.00000000      -0.00000398
Si       0.00000000       0.00000000      26.88352340      -0.00371460       0.00000000      -0.00002164
Si       1.35750000       1.91979491      26.88352340       0.00371746      -0.00000000       0.00001992
Si       4.07250000       0.00000000      24.96327173       0.00371390      -0.00000000       0.00002193
Si       4.07250000       0.00000000      28.80377507       0.00371549      -0.00000000       0.00002456
Si       2.71500000       1.91979491      28.80377507      -0.00371249       0.00000000      -0.00003030
Si       4.07250000       3.83958982      28.80377507       0.00371554       0.00000000       0.00002525
Si       0.00000000       0.00000000      23.04302006      -0.00370202       0.00000000       0.00000001
Si       1.35750000       1.91979491      23.04302006       0.00370406      -0.00000000       0.00001915
Si       0.00000000       3.83958982      23.04302006      -0.00370199      -0.00000000      -0.00000024
Si       1.35750000       5.75938473      23.04302006       0.00370404       0.00000000       0.00001904
Si       2.71500000       1.91979491      24.96327173      -0.00371140       0.00000000      -0.00000747
Si       4.07250000       3.83958982      24.96327173       0.00371394       0.00000000       0.00002230
Si       0.00000000       3.83958982      26.88352340      -0.00371456      -0.00000000      -0.00002216
Si       1.35750000       5.75938473      26.88352340       0.00371744       0.00000000       0.00001966
Si       2.71500000       5.75938473      24.96327173      -0.00371142      -0.00000000      -0.00000730
Si       2.71500000       5.75938473      28.80377507      -0.00371252      -0.00000000      -0.00002995
Si       0.00000000       0.00000000      34.56453008      -0.00370471       0.00000000      -0.00001757
Si       1.35750000       1.91979491      34.56453008       0.00370618      -0.00000000       0.00007089
Si       4.07250000       0.00000000      32.64427841       0.00369663      -0.00000000       0.00003028
Si       4.07250000       0.00000000      36.48478176       0.00372375      -0.00000000       0.00005041
Si       2.71500000       1.91979491      36.48478176      -0.00372335       0.00000000      -0.00004234
Si       4.07250000       3.83958982      36.48478176       0.00372378       0.00000000       0.00005174
Si       0.00000000       0.00000000      30.72402674      -0.00370592       0.00000000      -0.00004352
Si       1.35750000       1.91979491      30.72402674       0.00370875      -0.00000000       0.00002459
Si       0.00000000       3.83958982      30.72402674      -0.00370587      -0.00000000      -0.00004439
Si       1.35750000       5.75938473      30.72402674       0.00370872       0.00000000       0.00002414
Si       2.71500000       1.91979491      32.64427841      -0.00369432       0.00000000      -0.00004954
Si       4.07250000       3.83958982      32.64427841       0.00369668       0.00000000       0.00003134
Si       0.00000000       3.83958982      34.56453008      -0.00370467      -0.00000000      -0.00001878
Si       1.35750000       5.75938473      34.56453008       0.00370615       0.00000000       0.00007023
Si       2.71500000       5.75938473      32.64427841      -0.00369435      -0.00000000      -0.00004899
Si       2.71500000       5.75938473      36.48478176      -0.00372337      -0.00000000      -0.00004160
Si       0.00000000       0.00000000      42.24553677      -0.00369677      -0.00000000      -0.00002842
Si       1.35750000       1.91979491      42.24553677       0.00369421       0.00000000       0.00004797
Si       4.07250000       0.00000000      40.32528510       0.00370454      -0.00000000       0.00001639
Si       4.07250000       0.00000000      44.16578844       0.00370582       0.00000000       0.00004113
Si       2.71500000       1.91979491      44.16578844      -0.00370882      -0.00000000      -0.00002257
Si       4.07250000       3.83958982      44.16578844       0.00370579      -0.00000000       0.00004241
Si       0.00000000       0.00000000      38.40503343      -0.00372394       0.00000000      -0.00005000
Si       1.35750000       1.91979491      38.40503343       0.00372320      -0.00000000       0.00004200
Si       0.00000000       3.83958982      38.40503343      -0.00372393      -0.00000000      -0.00005140
Si       1.35750000       5.75938473      38.40503343       0.00372319       0.00000000       0.00004121
Si       2.71500000       1.91979491      40.32528510      -0.00370631      -0.00000000      -0.00006989
Si       4.07250000       3.83958982      40.32528510       0.00370454       0.00000000       0.00001780
Si       0.00000000       3.83958982      42.24553677      -0.00369679       0.00000000      -0.00002979
Si       1.35750000       5.75938473      42.24553677       0.00369422      -0.00000000       0.00004715
Si       2.71500000       5.75938473      40.32528510      -0.00370632       0.00000000      -0.00006907
Si       2.71500000       5.75938473      44.16578844      -0.00370881       0.00000000      -0.00002179
Si       0.00000000       0.00000000      49.92654345      -0.00371382      -0.00000000      -0.00001942
Si       1.35750000       1.91979491      49.92654345       0.00371147       0.00000000       0.00000535
Si       4.07250000       0.00000000      48.00629178       0.00371462       0.00000000       0.00001891
Si       4.07250000       0.00000000      51.84679513       0.00370215       0.00000000      -0.00000205
Si       2.71500000       1.91979491      51.84679513      -0.00370394      -0.00000000      -0.00001746
Si       4.07250000       3.83958982      51.84679513       0.00370210      -0.00000000      -0.00000141
Si       0.00000000       0.00000000      46.08604011      -0.00371553      -0.00000000      -0.00002187
Si       1.35750000       1.91979491      46.08604011       0.00371246       0.00000000       0.00002802
Si       0.00000000       3.83958982      46.08604011      -0.00371557       0.00000000      -0.00002301
Si       1.35750000       5.75938473      46.08604011       0.00371248      -0.00000000       0.00002730
Si       2.71500000       1.91979491      48.00629178      -0.00371744      -0.00000000      -0.00001760
Si       4.07250000       3.83958982      48.00629178       0.00371457      -0.00000000       0.00001989
Si       0.00000000       3.83958982      49.92654345      -0.00371387       0.00000000      -0.00002023
Si       1.35750000       5.75938473      49.92654345       0.00371150      -0.00000000       0.00000483
Si       2.71500000       5.75938473      48.00629178      -0.00371742       0.00000000      -0.00001697
Si       2.71500000       5.75938473      51.84679513      -0.00370391       0.00000000      -0.00001704
Si       0.00000000       0.00000000      57.60755014      -0.00371814      -0.00000000       0.00001043
Si       1.35750000       1.91979491      57.60755014       0.00371773       0.00000000       0.00001203
Si       4.07250000       0.00000000      55.68729847       0.00370313       0.00000000       0.00001591
Si       4.07250000       0.00000000      59.52780181       0.00372421       0.00000000      -0.00000008
Si       2.71500000       1.91979491      59.52780181      -0.00372439      -0.00000000      -0.00000041
Si       4.07250000       3.83958982      59.52780181       0.00372419      -0.00000000       0.00000007
Si       0.00000000       0.00000000      53.76704680      -0.00369705      -0.00000000      -0.00000567
Si       1.35750000       1.91979491      53.76704680       0.00369581       0.00000000       0.00000296
Si       0.00000000       3.83958982      53.76704680      -0.00369709       0.00000000      -0.00000614
Si       1.35750000       5.75938473      53.76704680       0.00369584      -0.00000000       0.00000263
Si       2.71500000       1.91979491      55.68729847      -0.00370389      -0.00000000       0.00001173
Si       4.07250000       3.83958982      55.68729847       0.00370310      -0.00000000       0.00001625
Si       0.00000000       3.83958982      57.60755014      -0.00371816       0.00000000       0.00001020
Si       1.35750000       5.75938473      57.60755014       0.00371775      -0.00000000       0.00001187
Si       2.71500000       5.75938473      55.68729847      -0.00370387       0.00000000       0.00001197
Si       2.71500000       5.75938473      59.52780181      -0.00372438       0.00000000      -0.00000031
Si       0.00000000       0.00000000      65.28855682      -0.00370018      -0.00000000       0.00000245
Si       1.35750000       1.91979491      65.28855682       0.00370022       0.00000000       0.00000238
Si       4.07250000       0.00000000      63.36830515       0.00370222       0.00000000      -0.00000631
Si       4.07250000       0.00000000      67.20880850       0.00370833       0.00000000       0.00001167
Si       2.71500000       1.91979491      67.20880850      -0.00370829      -0.00000000       0.00001155
Si       4.07250000       3.83958982      67.20880850       0.00370833      -0.00000000       0.00001168
Si       0.00000000       0.00000000      61.44805348      -0.00371494      -0.00000000      -0.00001573
Si       1.35750000       1.91979491      61.44805348       0.00371489       0.00000000      -0.00001588
Si       0.00000000       3.83958982      61.44805348      -0.00371495       0.00000000      -0.00001583
Si       1.35750000       5.75938473      61.44805348       0.00371490      -0.00000000      -0.00001594
Si       2.71500000       1.91979491      63.36830515      -0.00370220      -0.00000000      -0.00000612
Si       4.07250000       3.83958982      63.36830515       0.00370221      -0.00000000      -0.00000626
Si       0.00000000       3.83958982      65.28855682      -0.00370019       0.00000000       0.00000242
Si       1.35750000       5.75938473      65.28855682       0.00370022      -0.00000000       0.00000237
Si       2.71500000       5.75938473      63.36830515      -0.00370220       0.00000000      -0.00000608
Si       2.71500000       5.75938473      67.20880850      -0.00370828       0.00000000       0.00001155
Si       0.00000000       0.00000000      72.96956351      -0.02865462       0.00617329       0.00000521
Si       1.35750000       1.91979491      72.96956351       0.02865463       0.00617329       0.00000571
Si       4.07250000       0.00000000      71.04931184       0.00320166       0.00000000      -0.00000457
Si       4.07250000       0.00000000      74.88981518       0.32762484      -0.70341176       0.00000118
Si       2.71500000       1.91979491      74.88981518      -0.32762486      -0.70341178       0.00000075
Si       4.07250000       3.83958982      74.88981518       0.32762484      -0.70341176       0.00000118
Si       0.00000000       0.00000000      69.12906017      -0.00372455      -0.00000000      -0.00000103
Si       1.35750000       1.91979491      69.12906017       0.00372459       0.00000000      -0.00000073
Si       0.00000000       3.83958982      69.12906017      -0.00372455       0.00000000      -0.00000103
Si       1.35750000       5.75938473      69.12906017       0.00372459      -0.00000000      -0.00000072
Si       2.71500000       1.91979491      71.04931184      -0.00320164      -0.00000000      -0.00000500
Si       4.07250000       3.83958982      71.04931184       0.00320166      -0.00000000      -0.00000457
Si       0.00000000       3.83958982      72.96956351      -0.02865463       0.00617329       0.00000522
Si       1.35750000       5.75938473      72.96956351       0.02865463       0.00617329       0.00000572
Si       2.71500000       5.75938473      71.04931184      -0.00320163       0.00000000      -0.00000502
Si       2.71500000       5.75938473      74.88981518      -0.32762486      -0.70341178       0.00000073
160
Lattice="5.43 0.0 0.0 0.0 7.679179643685906 0.0 0.0 0.6399316369738142 76.76701559980974" Properties=species:S:1:pos:R:3:forces:R:3 energy=-692.6185559406855 free_energy=-692.6185559406855 pbc="T T T"
Si       0.00000000      -0.00000000       3.81953212      -0.00320171      -0.00000000       0.00000484
Si       1.35750000       1.91979491       3.81953190       0.00320159       0.00000000       0.00000470
Si       4.07250000      -0.00000000       1.89931682       0.02865460      -0.00617329      -0.00000532
Si       4.07250000      -0.00000000       5.73978458       0.00372449       0.00000000       0.00000050
Si       2.71500000       1.91979491       5.73978484      -0.00372466      -0.00000000       0.00000130
Si       4.07250000       3.83958982       5.73978458       0.00372449      -0.00000000       0.00000048
Si       0.00000000       0.00000000      -0.02275702      -0.32762485       0.70341176      -0.00000116
Si       1.35750000       1.91979491      -0.02275712       0.32762484       0.70341178      -0.00000078
Si       0.00000000       3.83958982      -0.02275702      -0.32762485       0.70341176      -0.00000115
Si       1.35750000       5.75938473      -0.02275712       0.32762484       0.70341177      -0.00000075
Si       2.71500000       1.91979491       1.89931698      -0.02865466      -0.00617329      -0.00000558
Si       4.07250000       3.83958982       1.89931682       0.02865460      -0.00617329      -0.00000533
Si       0.00000000       3.83958982       3.81953212      -0.00320171       0.00000000       0.00000486
Si       1.35750000       5.75938473       3.81953190       0.00320159      -0.00000000       0.00000476
Si       2.71500000       5.75938473       1.89931698      -0.02865465      -0.00617329      -0.00000563
Si       2.71500000       5.75938473       5.73978483      -0.00372465       0.00000000       0.00000123
Si       0.00000000      -0.00000000      11.50053246      -0.00370222       0.00000000       0.00000749
Si       1.35750000       1.91979491      11.50053222       0.00370220      -0.00000000       0.00000485
Si       4.07250000      -0.00000000       9.58028490       0.00370014      -0.00000000      -0.00000352
Si       4.07250000      -0.00000000      13.42078188       0.00371499      -0.00000000       0.00001468
Si       2.71500000       1.91979491      13.42078208      -0.00371484       0.00000000       0.00001705
Si       4.07250000       3.83958982      13.42078188       0.00371500       0.00000000       0.00001465
Si       0.00000000      -0.00000000       7.66003715      -0.00370839      -0.00000000      -0.00001085
Si       1.35750000       1.91979491       7.66003688       0.00370822       0.00000000      -0.00001243
Si       0.00000000       3.83958982       7.66003715      -0.00370839       0.00000000      -0.00001082
Si       1.35750000       5.75938473       7.66003688       0.00370822      -0.00000000      -0.00001236
Si       2.71500000       1.91979491       9.58028516      -0.00370026      -0.00000000      -0.00000124
Si       4.07250000       3.83958982       9.58028490       0.00370014       0.00000000      -0.00000356
Si       0.00000000       3.83958982      11.50053246      -0.00370222      -0.00000000       0.00000752
Si       1.35750000       5.75938473      11.50053222       0.00370220       0.00000000       0.00000491
Si       2.71500000       5.75938473       9.58028516      -0.00370027       0.00000000      -0.00000131
Si       2.71500000       5.75938473      13.42078208      -0.00371484      -0.00000000       0.00001700
Si       0.00000000      -0.00000000      19.18154411      -0.00370296       0.00000000      -0.00001655
Si       1.35750000       1.91979491      19.18154402       0.00370405      -0.00000000      -0.00001135
Si       4.07250000      -0.00000000      17.26129290       0.00371829      -0.00000000      -0.00001053
Si       4.07250000      -0.00000000      21.10178992       0.00369721      -0.00000000       0.00000705
Si       2.71500000       1.91979491      21.10178997      -0.00369566       0.00000000      -0.00000404
Si       4.07250000       3.83958982      21.10178992       0.00369723       0.00000000       0.00000719
Si       0.00000000      -0.00000000      15.34103761      -0.00372410       0.00000000       0.00000077
Si       1.35750000       1.91979491      15.34103745       0.00372449      -0.00000000      -0.00000042
Si       0.00000000       3.83958982      15.34103761      -0.00372409      -0.00000000       0.00000078
Si       1.35750000       5.75938473      15.34103745       0.00372448       0.00000000      -0.00000039
Si       2.71500000       1.91979491      17.26129302      -0.00371759       0.00000000      -0.00001174
Si       4.07250000       3.83958982      17.26129290       0.00371830       0.00000000      -0.00001050
Si       0.00000000       3.83958982      19.18154411      -0.00370294      -0.00000000      -0.00001662
Si       1.35750000       5.75938473      19.18154402       0.00370404       0.00000000      -0.00001136
Si       2.71500000       5.75938473      17.26129302      -0.00371760      -0.00000000      -0.00001176
Si       2.71500000       5.75938473      21.10178997      -0.00369568      -0.00000000      -0.00000398
Si       0.00000000      -0.00000000      26.86254083      -0.00371460       0.00000000      -0.00002164
Si       1.35750000       1.91979491      26.86254082       0.00371746      -0.00000000       0.00001992
Si       4.07250000      -0.00000000      24.94228756       0.00371390      -0.00000000       0.00002193
Si       4.07250000      -0.00000000      28.78279332       0.00371549      -0.00000000       0.00002456
Si       2.71500000       1.91979491      28.78279332      -0.00371249       0.00000000      -0.00003030
Si       4.07250000       3.83958982      28.78279332       0.00371554       0.00000000       0.00002525
Si       0.00000000      -0.00000000      23.02203683      -0.00370202       0.00000000       0.00000001
Si       1.35750000       1.91979491      23.02203679       0.00370406      -0.00000000       0.00001915
Si       0.00000000       3.83958982      23.02203683      -0.00370199      -0.00000000      -0.00000024
Si       1.35750000       5.75938473      23.02203679       0.00370404       0.00000000       0.00001904
Si       2.71500000       1.91979491      24.94228758      -0.00371140       0.00000000      -0.00000747
Si       4.07250000       3.83958982      24.94228756       0.00371394       0.00000000       0.00002230
Si       0.00000000       3.83958982      26.86254083      -0.00371456      -0.00000000      -0.00002216
Si       1.35750000       5.75938473      26.86254082       0.00371744       0.00000000       0.00001966
Si       2.71500000       5.75938473      24.94228758      -0.00371142      -0.00000000      -0.00000730
Si       2.71500000       5.75938473      28.78279332      -0.00371252      -0.00000000      -0.00002995
Si       0.00000000      -0.00000000      34.54353740      -0.00370471       0.00000000      -0.00001757
Si       1.35750000       1.91979491      34.54353740       0.00370618      -0.00000000       0.00007089
Si       4.07250000      -0.00000000      32.62329322       0.00369663      -0.00000000       0.00003028
Si       4.07250000      -0.00000000      36.46379226       0.00372375      -0.00000000       0.00005041
Si       2.71500000       1.91979491      36.46379226      -0.00372335       0.00000000      -0.00004234
Si       4.07250000       3.83958982      36.46379226       0.00372378       0.00000000       0.00005174
Si       0.00000000      -0.00000000      30.70304508      -0.00370592       0.00000000      -0.00004352
Si       1.35750000       1.91979491      30.70304508       0.00370875      -0.00000000       0.00002459
Si       0.00000000       3.83958982      30.70304508      -0.00370587      -0.00000000      -0.00004439
Si       1.35750000       5.75938473      30.70304508       0.00370872       0.00000000       0.00002414
Si       2.71500000       1.91979491      32.62329322      -0.00369432       0.00000000      -0.00004954
Si       4.07250000       3.83958982      32.62329322       0.00369668       0.00000000       0.00003134
Si       0.00000000       3.83958982      34.54353740      -0.00370467      -0.00000000      -0.00001878
Si       1.35750000       5.75938473      34.54353740       0.00370615       0.00000000       0.00007023
Si       2.71500000       5.75938473      32.62329322      -0.00369435      -0.00000000      -0.00004899
Si       2.71500000       5.75938473      36.46379226      -0.00372337      -0.00000000      -0.00004160
Si       0.00000000      -0.00000000      42.22454699      -0.00369677      -0.00000000      -0.00002842
Si       1.35750000       1.91979491      42.22454699       0.00369421       0.00000000       0.00004797
Si       4.07250000      -0.00000000      40.30430281       0.00370454      -0.00000000       0.00001639
Si       4.07250000      -0.00000000      44.14479513       0.00370582       0.00000000       0.00004113
Si       2.71500000       1.91979491      44.14479513      -0.00370882      -0.00000000      -0.00002257
Si       4.07250000       3.83958982      44.14479513       0.00370579      -0.00000000       0.00004241
Si       0.00000000      -0.00000000      38.38404795      -0.00372394       0.00000000      -0.00005000
Si       1.35750000       1.91979491      38.38404795       0.00372320      -0.00000000       0.00004200
Si       0.00000000       3.83958982      38.38404795      -0.00372393      -0.00000000      -0.00005140
Si       1.35750000       5.75938473      38.38404795       0.00372319       0.00000000       0.00004121
Si       2.71500000       1.91979491      40.30430281      -0.00370631      -0.00000000      -0.00006989
Si       4.07250000       3.83958982      40.30430281       0.00370454       0.00000000       0.00001780
Si       0.00000000       3.83958982      42.22454699      -0.00369679       0.00000000      -0.00002979
Si       1.35750000       5.75938473      42.22454699       0.00369422      -0.00000000       0.00004715
Si       2.71500000       5.75938473      40.30430281      -0.00370632       0.00000000      -0.00006907
Si       2.71500000       5.75938473      44.14479513      -0.00370881       0.00000000      -0.00002179
Si       0.00000000      -0.00000000      49.90555264      -0.00371382      -0.00000000      -0.00001942
Si       1.35750000       1.91979491      49.90555264       0.00371147       0.00000000       0.00000535
Si       4.07250000      -0.00000000      47.98529938       0.00371462       0.00000000       0.00001891
Si       4.07250000      -0.00000000      51.82580340       0.00370215       0.00000000      -0.00000205
Si       2.71500000       1.91979491      51.82580340      -0.00370394      -0.00000000      -0.00001746
Si       4.07250000       3.83958982      51.82580340       0.00370210      -0.00000000      -0.00000141
Si       0.00000000      -0.00000000      46.06504689      -0.00371553      -0.00000000      -0.00002187
Si       1.35750000       1.91979491      46.06504689       0.00371246       0.00000000       0.00002802
Si       0.00000000       3.83958982      46.06504689      -0.00371557       0.00000000      -0.00002301
Si       1.35750000       5.75938473      46.06504689       0.00371248      -0.00000000       0.00002730
Si       2.71500000       1.91979491      47.98529938      -0.00371744      -0.00000000      -0.00001760
Si       4.07250000       3.83958982      47.98529938       0.00371457      -0.00000000       0.00001989
Si       0.00000000       3.83958982      49.90555264      -0.00371387       0.00000000      -0.00002023
Si       1.35750000       5.75938473      49.90555264       0.00371150      -0.00000000       0.00000483
Si       2.71500000       5.75938473      47.98529938      -0.00371742       0.00000000      -0.00001697
Si       2.71500000       5.75938473      51.82580340      -0.00370391       0.00000000      -0.00001704
Si       0.00000000      -0.00000000      57.58654725      -0.00371814      -0.00000000       0.00001043
Si       1.35750000       1.91979491      57.58654725       0.00371773       0.00000000       0.00001203
Si       4.07250000      -0.00000000      55.66629615       0.00370313       0.00000000       0.00001591
Si       4.07250000      -0.00000000      59.50680268       0.00372421       0.00000000      -0.00000008
Si       2.71500000       1.91979491      59.50680268      -0.00372439      -0.00000000      -0.00000041
Si       4.07250000       3.83958982      59.50680268       0.00372419      -0.00000000       0.00000007
Si       0.00000000      -0.00000000      53.74605026      -0.00369705      -0.00000000      -0.00000567
Si       1.35750000       1.91979491      53.74605026       0.00369581       0.00000000       0.00000296
Si       0.00000000       3.83958982      53.74605026      -0.00369709       0.00000000      -0.00000614