NaCl.lammps (written by ASE) 

30 	 atoms 
2  atom types
0.0      499.99999999999994  xlo xhi
0.0      499.99999999999994  ylo yhi
0.0      999.99999999999989  zlo zhi


Atoms 

     1   1   2   1.0      316.33815682019696      116.00750022565695      189.69884555447709
     2   1   2   1.0      295.39132092465633      203.58975635556354      876.42045416195344
     3   1   2   1.0       257.6588802120603      445.96137172533236      425.76295104133919
     4   1   2   1.0      197.29246658208965       315.0561694490508      328.49944760091341
     5   1   2   1.0      12.288978763692947      11.126048561836519      462.57836319490832
     6   1   2   1.0      310.38767868819662      349.89307597388824      880.56433214453477
     7   1   2   1.0      411.15328479028983      430.99729039466791      724.82482516813218
     8   1   2   1.0      61.612024647959664      426.04154416039239       987.4968901838032
     9   1   2   1.0      458.49234479302118      53.644398400747072      604.85062080387183
    10   1   2   1.0      73.878147523983301      210.60823650023369      817.76967587843581
    11   1   2   1.0      422.71110390209697      21.856564074693214      963.11528211348264
    12   1   2   1.0      486.14205162615531       184.1571971966427       757.5778125182236
    13   1   2   1.0      352.27682563924833      488.07940228271963      463.60291965645905
    14   1   2   1.0      104.76912972608069      365.54952411538301       39.71626992415122
    15   1   2   1.0      443.35031997367406      193.73548898358567      311.06632146121649
    16   1   1  -1.0      479.48413921921531      374.35814003855421      757.29922490642321
    17   1   1  -1.0      381.26251628061129      487.10531056338982      450.76169368647385
    18   1   1  -1.0      462.58324318061733      174.40796238718215      84.376318739714947
    19   1   1  -1.0      97.267782923006962      270.68354258252992      252.59723165796845
    20   1   1  -1.0      184.87910937481254      156.03266719863828      545.97903570824565
    21   1   1  -1.0      380.05096094021059      395.45485087022416      717.42059576982115
    22   1   1  -1.0      52.666135393352121      145.37706031138032      260.94910961104051
    23   1   1  -1.0      311.72683614896545      114.14821374585645      92.808576710570165
    24   1   1  -1.0      171.22166063679003      499.35837500029396      502.05852309776697
    25   1   1  -1.0      465.64586518973624      163.22117825964492      382.04272085697306
    26   1   1  -1.0      338.86195555985489      457.20185950116712      28.177953967719041
    27   1   1  -1.0      287.39975807239176      455.54925454643598      941.24275728027476
    28   1   1  -1.0       275.7011090875007      361.63023505965356       462.4145582010778
    29   1   1  -1.0      78.217075443428627      459.01810499073105      12.741754255208624
    30   1   1  -1.0      433.54283316129346      407.37680425544056      148.94044096395928
