NaCl.lammps (written by ASE)

30 	 atoms
2  atom types
0.0      499.99999999999994  xlo xhi
0.0      499.99999999999994  ylo yhi
0.0      999.99999999999989  zlo zhi


Atoms

     1   1   1   1.0      101.10114671512065      430.26861961851552      710.49125702956655
     2   2   1   1.0      434.98600172803623      40.135440468709589      324.02425371248881
     3   3   1   1.0      358.44003637029545      211.92286900206798      862.33170259715575
     4   4   1   1.0      84.481334634551089       299.9756090749334      152.06489462522404
     5   5   1   1.0      244.06801195485482      288.92558810023053      442.44108717591843
     6   6   1   1.0      101.80633000924381      391.26185204803437      645.87483690551221
     7   7   1   1.0      456.55276812987478      281.69586685861549      629.54116158066779
     8   8   1   1.0      82.269423746734375      1.3350760793401915      677.24614049927357
     9   9   1   1.0      349.82918415637999      478.76491477992926      484.73415955271719
    10  10   1   1.0       120.3832120277759      393.58562510103826      838.13820173674219
    11  11   1   1.0      140.33052292352747      202.61508041015858      873.75429745261101
    12  12   1   1.0      366.44634880234963      98.559120140494272      508.63477069135928
    13  13   1   1.0      300.89923686285169      491.98638568589854      62.310651268321124
    14  14   1   1.0      13.107116507485969      293.74674583689392      638.67811078352406
    15  15   1   1.0      412.79477442796451      330.75298792035625      273.56688677608321
    16  16   2  -1.0      191.84065815567342      32.218201302948827      110.83988681273181
    17  17   2  -1.0      74.283786500835475      327.78640663536169      382.36386626035335
    18  18   2  -1.0      36.856000746097848      105.30326404977811       18.68520361557368
    19  19   2  -1.0       92.19818443703079      417.95358965308407      213.03406805998958
    20  20   2  -1.0      66.591244840349759      244.77269513136824      380.54820415253067
    21  21   2  -1.0       324.6441861027879       320.6974748377699      826.39757327412303
    22  22   2  -1.0      343.57062276872796      157.73346527895836      26.385446867642653
    23  23   2  -1.0      74.888014275729873      186.23830849339117      594.16459025261167
    24  24   2  -1.0      74.443888447642536      194.68983345676526      117.30671855942897
    25  25   2  -1.0      406.95644887423481      410.66621998814844      593.58957732141005
    26  26   2  -1.0      59.744602183273031      437.93490070224971      18.510187677406861
    27  27   2  -1.0      485.88585636423932      221.14929891014714      121.78551147089411
    28  28   2  -1.0      50.266459779795433       229.1138729739861      53.007228585326239
    29  29   2  -1.0      338.77761591129934      494.52747959731306      19.722417327463273
    30  30   2  -1.0      447.01388078313187      364.07812952069389      246.83746599845654
