LAMMPS data file via write_data, version 23 Jun 2022, timestep = 1679647

62 atoms
3 atom types
48 bonds
1 bond types
80 angles
2 angle types

0.4983253497907752 9.501674650208637 xlo xhi
0.4983253497907752 9.501674650208637 ylo yhi
0.4983253497907752 9.501674650208637 zlo zhi

Masses

1 15.9994
2 30.9748
3 65.38

PairIJ Coeffs # lj/cut/coul/long

1 1 0.012185 2.91707 10
1 2 0.004251 1.91989 10
1 3 0.000827 2.79234 10
2 2 0 0 10
2 3 0 0 10
3 3 0 0 10

Bond Coeffs # zero

1 0

Angle Coeffs # harmonic

1 1.77005 109.47
2 10.4663 135.58

Atoms # full

1 1 2 1.85 4.759951750239728 7.634229630545464 4.795664150314492 -3 -1 30
2 1 1 -0.74 4.6421848043580285 7.4820192124088205 3.3049144187164825 -3 -1 30
3 1 1 -0.74 3.7772416167404614 6.702891729309455 5.428365265373127 -3 -1 30
4 1 1 -0.74 4.5440343238086065 9.038328662277658 5.203299574294237 -3 -1 30
5 1 2 1.85 7.310095757162917 7.674478195556201 6.233810564584596 -3 -1 30
6 1 1 -0.74 7.462296241239791 6.7350007760692545 7.353162458139156 -3 -1 30
7 1 1 -0.74 6.982046780337108 9.04560155528862 6.700949840874788 -3 -1 30
8 1 1 -0.74 6.214233775457295 7.19019131105459 5.23912590085533 -3 -1 30
9 1 2 1.85 0.7978105062937529 8.855734977084532 5.236247375190303 -2 -1 30
10 1 1 -0.74 1.4600930474013836 9.02668363239162 6.557717305326639 -2 -1 30
11 1 1 -0.74 9.125969355049738 1.0981786685553316 4.8030969176182925 -3 0 30
12 1 1 -0.74 1.7526702295973526 8.345744199415487 4.206528152495397 -2 -1 30
13 1 1 -0.74 8.64742629126253 7.766117694155398 5.436330180464322 -3 -1 30
14 2 2 1.85 5.785929303451131 3.616701609486681 5.246254951001708 -3 -1 32
15 2 1 -0.74 5.941477474736059 4.398867565147346 3.9791950352146754 -3 -1 32
16 2 1 -0.74 6.011143017134164 4.411990359330369 6.470112097851306 -3 -1 32
17 2 1 -0.74 6.669193432549384 2.417770346652302 5.227651176116074 -3 -1 32
18 2 2 1.85 3.0381054618311123 3.2046076595638886 4.321161386935291 -3 -1 32
19 2 1 -0.74 2.978349004336694 2.0724487549841917 3.395815088835578 -3 -1 32
20 2 1 -0.74 3.1513383084125755 4.515918899610047 3.5950654995003903 -3 -1 32
21 2 1 -0.74 4.279225917785809 3.086073470703603 5.256783141781632 -3 -1 32
22 2 2 1.85 0.6145731451184405 4.305624665913227 5.516548990737447 -3 -1 32
23 2 1 -0.74 8.831522792111214 4.482922970427522 4.266744026094876 -4 -1 32
24 2 1 -0.74 1.3034457272282953 5.590804520851298 5.856929945592832 -3 -1 32
25 2 1 -0.74 8.777106102109286 3.806244535031724 6.629133377450738 -4 -1 32
26 2 1 -0.74 1.7821345620830997 3.2610101782377585 5.218037118582272 -3 -1 32
27 3 2 1.85 5.78492249838425 2.7875046157829617 0.7449263875668269 -2 0 33
28 3 1 -0.74 5.941582271777603 2.005726305179117 8.480871140355445 -2 0 32
29 3 1 -0.74 6.667277561036333 3.9872159130549623 0.7267860554203808 -2 0 33
30 3 1 -0.74 6.010199492096921 1.9922103988474995 1.9686132604943456 -2 0 33
31 3 2 1.85 3.0374530970445277 3.1984146516261296 8.820841916013238 -2 0 32
32 3 1 -0.74 3.15139060063265 1.8870737435295626 8.095009270644788 -2 0 32
33 3 1 -0.74 2.9793583213451185 4.330601660774945 7.8952170498536605 -2 0 32
34 3 1 -0.74 4.277658741666743 3.3167331622902503 0.7544789278829358 -2 0 33
35 3 2 1.85 0.6143247822433837 2.0970685744485076 1.01288823129814 -2 0 33
36 3 1 -0.74 1.3048051200744861 0.8132339339738942 1.3553085678190642 -2 0 33
37 3 1 -0.74 8.831647680145952 1.9169153701695643 8.766676391946799 -3 0 32
38 3 1 -0.74 8.776400492817821 2.597277796220648 2.12494986120149 -3 0 33
39 3 1 -0.74 1.78052932387144 3.142874197661551 0.7126640887145361 -2 0 33
40 4 2 1.85 0.7976979108274538 6.549749212892568 0.7347491759746345 -2 -2 34
41 4 1 -0.74 1.4582321850719755 6.375439815546129 2.0565242183693577 -2 -2 34
42 4 1 -0.74 9.124394997995502 5.305710831404248 9.302362409686609 -3 -2 33
43 4 1 -0.74 1.7542057674443636 7.059931746251961 8.710330083283088 -2 -2 33
44 4 2 1.85 7.311579304469458 7.733751312442678 1.7328661900349847 -3 -2 34
45 4 1 -0.74 7.464141938172227 8.673616793662951 2.8517562646015056 -3 -2 34
46 4 1 -0.74 6.982773095332157 6.362895017396253 2.2009277919140438 -3 -2 34
47 4 1 -0.74 8.648810740783029 7.640826527453667 0.9355314637981371 -3 -2 34
48 4 2 1.85 4.761678622987025 7.773662327610553 9.297421761032668 -3 -2 33
49 4 1 -0.74 4.545898843285657 6.369710057601357 0.7014678121399207 -3 -2 34
50 4 1 -0.74 4.644100320046006 7.925878693783477 7.806479711962797 -3 -2 33
51 4 1 -0.74 3.778783801231631 8.704880284535154 0.9263842682970611 -3 -2 34
52 4 1 -0.74 6.215972102328652 8.217908179976247 0.7378563184355554 -3 -2 34
53 5 3 0.74 7.795759871756886 4.468098294051849 2.503058599405855 -8 4 39
54 6 3 0.74 2.19225752453085 9.066164733867746 8.456300286975008 -8 0 24
55 7 3 0.74 2.838863190181124 9.190172362472891 2.6606844573869295 -6 -1 31
56 8 3 0.74 7.538031015791797 1.5920346527865128 3.508883140697673 3 -1 35
57 9 3 0.74 4.946435298127009 0.8990518974542767 7.008941414713011 1 -3 31
58 10 3 0.74 2.1918865687181532 6.339606207792974 3.9545562995783383 0 9 33
59 11 3 0.74 4.947272665826028 5.505786827836907 2.5072000398645873 -5 -2 30
60 12 3 0.74 7.5355821949397175 4.812958521044777 8.010262290524446 3 1 30
61 13 3 0.74 2.838209494284471 6.21706859566082 7.162325722497502 4 10 33
62 14 3 0.74 7.796686190573141 1.9355163802055941 7.003038974700643 -5 4 36

Velocities

1 0 0 0
2 0 0 0
3 0 0 0
4 0 0 0
5 0 0 0
6 0 0 0
7 0 0 0
8 0 0 0
9 0 0 0
10 0 0 0
11 0 0 0
12 0 0 0
13 0 0 0
14 0 0 0
15 0 0 0
16 0 0 0
17 0 0 0
18 0 0 0
19 0 0 0
20 0 0 0
21 0 0 0
22 0 0 0
23 0 0 0
24 0 0 0
25 0 0 0
26 0 0 0
27 0 0 0
28 0 0 0
29 0 0 0
30 0 0 0
31 0 0 0
32 0 0 0
33 0 0 0
34 0 0 0
35 0 0 0
36 0 0 0
37 0 0 0
38 0 0 0
39 0 0 0
40 0 0 0
41 0 0 0
42 0 0 0
43 0 0 0
44 0 0 0
45 0 0 0
46 0 0 0
47 0 0 0
48 0 0 0
49 0 0 0
50 0 0 0
51 0 0 0
52 0 0 0
53 0 0 0
54 0 0 0
55 0 0 0
56 0 0 0
57 0 0 0
58 0 0 0
59 0 0 0
60 0 0 0
61 0 0 0
62 0 0 0

Bonds

1 1 1 2
2 1 1 3
3 1 1 4
4 1 1 8
5 1 5 6
6 1 5 7
7 1 5 8
8 1 5 13
9 1 9 10
10 1 9 11
11 1 9 12
12 1 9 13
13 1 14 15
14 1 14 16
15 1 14 17
16 1 14 21
17 1 18 19
18 1 18 20
19 1 18 21
20 1 18 26
21 1 22 23
22 1 22 24
23 1 22 25
24 1 22 26
25 1 27 28
26 1 27 29
27 1 27 30
28 1 27 34
29 1 31 32
30 1 31 33
31 1 31 34
32 1 31 39
33 1 35 36
34 1 35 37
35 1 35 38
36 1 35 39
37 1 40 41
38 1 40 42
39 1 40 43
40 1 40 47
41 1 44 45
42 1 44 46
43 1 44 47
44 1 44 52
45 1 48 49
46 1 48 50
47 1 48 51
48 1 48 52

Angles

1 1 2 1 3
2 1 2 1 4
3 1 3 1 4
4 1 2 1 8
5 1 3 1 8
6 1 4 1 8
7 1 6 5 7
8 1 6 5 8
9 1 7 5 8
10 1 6 5 13
11 1 7 5 13
12 1 8 5 13
13 2 1 8 5
14 1 10 9 11
15 1 10 9 12
16 1 10 9 13
17 1 11 9 12
18 1 11 9 13
19 1 12 9 13
20 2 5 13 9
21 1 15 14 16
22 1 15 14 17
23 1 16 14 17
24 1 15 14 21
25 1 16 14 21
26 1 17 14 21
27 1 19 18 20
28 1 19 18 21
29 1 20 18 21
30 1 19 18 26
31 1 20 18 26
32 1 21 18 26
33 2 14 21 18
34 1 23 22 24
35 1 23 22 25
36 1 23 22 26
37 1 24 22 25
38 1 24 22 26
39 1 25 22 26
40 2 18 26 22
41 1 28 27 29
42 1 28 27 30
43 1 29 27 30
44 1 28 27 34
45 1 29 27 34
46 1 30 27 34
47 1 32 31 33
48 1 32 31 34
49 1 33 31 34
50 1 32 31 39
51 1 33 31 39
52 1 34 31 39
53 2 27 34 31
54 1 36 35 37
55 1 36 35 38
56 1 36 35 39
57 1 37 35 38
58 1 37 35 39
59 1 38 35 39
60 2 31 39 35
61 1 41 40 42
62 1 41 40 43
63 1 42 40 43
64 1 41 40 47
65 1 42 40 47
66 1 43 40 47
67 1 45 44 46
68 1 45 44 47
69 1 46 44 47
70 1 45 44 52
71 1 46 44 52
72 1 47 44 52
73 2 40 47 44
74 1 49 48 50
75 1 49 48 51
76 1 49 48 52
77 1 50 48 51
78 1 50 48 52
79 1 51 48 52
80 2 44 52 48
